V -t * -v 1.0a5 -a 0
A -t * -n 1 -p 0 -o 0x7fffffff -c 30 -a 1
A -t * -h 1 -m 1073741823 -s 0
n -t * -a 0 -s 0 -S UP -v circle -c black -i black
n -t * -a 1 -s 1 -S UP -v circle -c black -i black
n -t * -a 2 -s 2 -S UP -v circle -c black -i black
n -t * -a 3 -s 3 -S UP -v circle -c black -i black
l -t * -s 0 -d 2 -S UP -r 500000 -D 0.02 -c black
l -t * -s 1 -d 2 -S UP -r 500000 -D 0.02 -c black
l -t * -s 2 -d 3 -S UP -r 500000 -D 0.02 -c black
+ -t 0.5 -s 0 -d 2 -p tcp -e 40 -c 0 -i 0 -a 0 -x {0.0 3.0 0 ------- null}
- -t 0.5 -s 0 -d 2 -p tcp -e 40 -c 0 -i 0 -a 0 -x {0.0 3.0 0 ------- null}
h -t 0.5 -s 0 -d 2 -p tcp -e 40 -c 0 -i 0 -a 0 -x {0.0 3.0 -1 ------- null}
r -t 0.52064 -s 0 -d 2 -p tcp -e 40 -c 0 -i 0 -a 0 -x {0.0 3.0 0 ------- null}
+ -t 0.52064 -s 2 -d 3 -p tcp -e 40 -c 0 -i 0 -a 0 -x {0.0 3.0 0 ------- null}
- -t 0.52064 -s 2 -d 3 -p tcp -e 40 -c 0 -i 0 -a 0 -x {0.0 3.0 0 ------- null}
h -t 0.52064 -s 2 -d 3 -p tcp -e 40 -c 0 -i 0 -a 0 -x {0.0 3.0 -1 ------- null}
r -t 0.54128 -s 2 -d 3 -p tcp -e 40 -c 0 -i 0 -a 0 -x {0.0 3.0 0 ------- null}
+ -t 0.54128 -s 3 -d 2 -p ack -e 40 -c 0 -i 1 -a 0 -x {3.0 0.0 0 ------- null}
- -t 0.54128 -s 3 -d 2 -p ack -e 40 -c 0 -i 1 -a 0 -x {3.0 0.0 0 ------- null}
h -t 0.54128 -s 3 -d 2 -p ack -e 40 -c 0 -i 1 -a 0 -x {3.0 0.0 -1 ------- null}
r -t 0.56192 -s 3 -d 2 -p ack -e 40 -c 0 -i 1 -a 0 -x {3.0 0.0 0 ------- null}
+ -t 0.56192 -s 2 -d 0 -p ack -e 40 -c 0 -i 1 -a 0 -x {3.0 0.0 0 ------- null}
- -t 0.56192 -s 2 -d 0 -p ack -e 40 -c 0 -i 1 -a 0 -x {3.0 0.0 0 ------- null}
h -t 0.56192 -s 2 -d 0 -p ack -e 40 -c 0 -i 1 -a 0 -x {3.0 0.0 -1 ------- null}
r -t 0.58256 -s 2 -d 0 -p ack -e 40 -c 0 -i 1 -a 0 -x {3.0 0.0 0 ------- null}
+ -t 0.58256 -s 0 -d 2 -p tcp -e 1040 -c 0 -i 2 -a 0 -x {0.0 3.0 1 ------- null}
- -t 0.58256 -s 0 -d 2 -p tcp -e 1040 -c 0 -i 2 -a 0 -x {0.0 3.0 1 ------- null}
h -t 0.58256 -s 0 -d 2 -p tcp -e 1040 -c 0 -i 2 -a 0 -x {0.0 3.0 -1 ------- null}
+ -t 0.58256 -s 0 -d 2 -p tcp -e 1040 -c 0 -i 3 -a 0 -x {0.0 3.0 2 ------- null}
- -t 0.5992 -s 0 -d 2 -p tcp -e 1040 -c 0 -i 3 -a 0 -x {0.0 3.0 2 ------- null}
h -t 0.5992 -s 0 -d 2 -p tcp -e 1040 -c 0 -i 3 -a 0 -x {0.0 3.0 -1 ------- null}
r -t 0.6192 -s 0 -d 2 -p tcp -e 1040 -c 0 -i 2 -a 0 -x {0.0 3.0 1 ------- null}
+ -t 0.6192 -s 2 -d 3 -p tcp -e 1040 -c 0 -i 2 -a 0 -x {0.0 3.0 1 ------- null}
- -t 0.6192 -s 2 -d 3 -p tcp -e 1040 -c 0 -i 2 -a 0 -x {0.0 3.0 1 ------- null}
h -t 0.6192 -s 2 -d 3 -p tcp -e 1040 -c 0 -i 2 -a 0 -x {0.0 3.0 -1 ------- null}
r -t 0.63584 -s 0 -d 2 -p tcp -e 1040 -c 0 -i 3 -a 0 -x {0.0 3.0 2 ------- null}
+ -t 0.63584 -s 2 -d 3 -p tcp -e 1040 -c 0 -i 3 -a 0 -x {0.0 3.0 2 ------- null}
- -t 0.63584 -s 2 -d 3 -p tcp -e 1040 -c 0 -i 3 -a 0 -x {0.0 3.0 2 ------- null}
h -t 0.63584 -s 2 -d 3 -p tcp -e 1040 -c 0 -i 3 -a 0 -x {0.0 3.0 -1 ------- null}
r -t 0.65584 -s 2 -d 3 -p tcp -e 1040 -c 0 -i 2 -a 0 -x {0.0 3.0 1 ------- null}
+ -t 0.65584 -s 3 -d 2 -p ack -e 40 -c 0 -i 4 -a 0 -x {3.0 0.0 1 ------- null}
- -t 0.65584 -s 3 -d 2 -p ack -e 40 -c 0 -i 4 -a 0 -x {3.0 0.0 1 ------- null}
h -t 0.65584 -s 3 -d 2 -p ack -e 40 -c 0 -i 4 -a 0 -x {3.0 0.0 -1 ------- null}
r -t 0.67248 -s 2 -d 3 -p tcp -e 1040 -c 0 -i 3 -a 0 -x {0.0 3.0 2 ------- null}
+ -t 0.67248 -s 3 -d 2 -p ack -e 40 -c 0 -i 5 -a 0 -x {3.0 0.0 2 ------- null}
- -t 0.67248 -s 3 -d 2 -p ack -e 40 -c 0 -i 5 -a 0 -x {3.0 0.0 2 ------- null}
h -t 0.67248 -s 3 -d 2 -p ack -e 40 -c 0 -i 5 -a 0 -x {3.0 0.0 -1 ------- null}
r -t 0.67648 -s 3 -d 2 -p ack -e 40 -c 0 -i 4 -a 0 -x {3.0 0.0 1 ------- null}
+ -t 0.67648 -s 2 -d 0 -p ack -e 40 -c 0 -i 4 -a 0 -x {3.0 0.0 1 ------- null}
- -t 0.67648 -s 2 -d 0 -p ack -e 40 -c 0 -i 4 -a 0 -x {3.0 0.0 1 ------- null}
h -t 0.67648 -s 2 -d 0 -p ack -e 40 -c 0 -i 4 -a 0 -x {3.0 0.0 -1 ------- null}
r -t 0.69312 -s 3 -d 2 -p ack -e 40 -c 0 -i 5 -a 0 -x {3.0 0.0 2 ------- null}
+ -t 0.69312 -s 2 -d 0 -p ack -e 40 -c 0 -i 5 -a 0 -x {3.0 0.0 2 ------- null}
- -t 0.69312 -s 2 -d 0 -p ack -e 40 -c 0 -i 5 -a 0 -x {3.0 0.0 2 ------- null}
h -t 0.69312 -s 2 -d 0 -p ack -e 40 -c 0 -i 5 -a 0 -x {3.0 0.0 -1 ------- null}
r -t 0.69712 -s 2 -d 0 -p ack -e 40 -c 0 -i 4 -a 0 -x {3.0 0.0 1 ------- null}
+ -t 0.69712 -s 0 -d 2 -p tcp -e 1040 -c 0 -i 6 -a 0 -x {0.0 3.0 3 ------- null}
- -t 0.69712 -s 0 -d 2 -p tcp -e 1040 -c 0 -i 6 -a 0 -x {0.0 3.0 3 ------- null}
h -t 0.69712 -s 0 -d 2 -p tcp -e 1040 -c 0 -i 6 -a 0 -x {0.0 3.0 -1 ------- null}
+ -t 0.69712 -s 0 -d 2 -p tcp -e 1040 -c 0 -i 7 -a 0 -x {0.0 3.0 4 ------- null}
r -t 0.71376 -s 2 -d 0 -p ack -e 40 -c 0 -i 5 -a 0 -x {3.0 0.0 2 ------- null}
+ -t 0.71376 -s 0 -d 2 -p tcp -e 1040 -c 0 -i 8 -a 0 -x {0.0 3.0 5 ------- null}
+ -t 0.71376 -s 0 -d 2 -p tcp -e 1040 -c 0 -i 9 -a 0 -x {0.0 3.0 6 ------- null}
- -t 0.71376 -s 0 -d 2 -p tcp -e 1040 -c 0 -i 7 -a 0 -x {0.0 3.0 4 ------- null}
h -t 0.71376 -s 0 -d 2 -p tcp -e 1040 -c 0 -i 7 -a 0 -x {0.0 3.0 -1 ------- null}
- -t 0.7304 -s 0 -d 2 -p tcp -e 1040 -c 0 -i 8 -a 0 -x {0.0 3.0 5 ------- null}
h -t 0.7304 -s 0 -d 2 -p tcp -e 1040 -c 0 -i 8 -a 0 -x {0.0 3.0 -1 ------- null}
r -t 0.73376 -s 0 -d 2 -p tcp -e 1040 -c 0 -i 6 -a 0 -x {0.0 3.0 3 ------- null}
+ -t 0.73376 -s 2 -d 3 -p tcp -e 1040 -c 0 -i 6 -a 0 -x {0.0 3.0 3 ------- null}
- -t 0.73376 -s 2 -d 3 -p tcp -e 1040 -c 0 -i 6 -a 0 -x {0.0 3.0 3 ------- null}
h -t 0.73376 -s 2 -d 3 -p tcp -e 1040 -c 0 -i 6 -a 0 -x {0.0 3.0 -1 ------- null}
- -t 0.74704 -s 0 -d 2 -p tcp -e 1040 -c 0 -i 9 -a 0 -x {0.0 3.0 6 ------- null}
h -t 0.74704 -s 0 -d 2 -p tcp -e 1040 -c 0 -i 9 -a 0 -x {0.0 3.0 -1 ------- null}
r -t 0.7504 -s 0 -d 2 -p tcp -e 1040 -c 0 -i 7 -a 0 -x {0.0 3.0 4 ------- null}
+ -t 0.7504 -s 2 -d 3 -p tcp -e 1040 -c 0 -i 7 -a 0 -x {0.0 3.0 4 ------- null}
- -t 0.7504 -s 2 -d 3 -p tcp -e 1040 -c 0 -i 7 -a 0 -x {0.0 3.0 4 ------- null}
h -t 0.7504 -s 2 -d 3 -p tcp -e 1040 -c 0 -i 7 -a 0 -x {0.0 3.0 -1 ------- null}
r -t 0.76704 -s 0 -d 2 -p tcp -e 1040 -c 0 -i 8 -a 0 -x {0.0 3.0 5 ------- null}
+ -t 0.76704 -s 2 -d 3 -p tcp -e 1040 -c 0 -i 8 -a 0 -x {0.0 3.0 5 ------- null}
- -t 0.76704 -s 2 -d 3 -p tcp -e 1040 -c 0 -i 8 -a 0 -x {0.0 3.0 5 ------- null}
h -t 0.76704 -s 2 -d 3 -p tcp -e 1040 -c 0 -i 8 -a 0 -x {0.0 3.0 -1 ------- null}
r -t 0.7704 -s 2 -d 3 -p tcp -e 1040 -c 0 -i 6 -a 0 -x {0.0 3.0 3 ------- null}
+ -t 0.7704 -s 3 -d 2 -p ack -e 40 -c 0 -i 10 -a 0 -x {3.0 0.0 3 ------- null}
- -t 0.7704 -s 3 -d 2 -p ack -e 40 -c 0 -i 10 -a 0 -x {3.0 0.0 3 ------- null}
h -t 0.7704 -s 3 -d 2 -p ack -e 40 -c 0 -i 10 -a 0 -x {3.0 0.0 -1 ------- null}
r -t 0.78368 -s 0 -d 2 -p tcp -e 1040 -c 0 -i 9 -a 0 -x {0.0 3.0 6 ------- null}
+ -t 0.78368 -s 2 -d 3 -p tcp -e 1040 -c 0 -i 9 -a 0 -x {0.0 3.0 6 ------- null}
- -t 0.78368 -s 2 -d 3 -p tcp -e 1040 -c 0 -i 9 -a 0 -x {0.0 3.0 6 ------- null}
h -t 0.78368 -s 2 -d 3 -p tcp -e 1040 -c 0 -i 9 -a 0 -x {0.0 3.0 -1 ------- null}
r -t 0.78704 -s 2 -d 3 -p tcp -e 1040 -c 0 -i 7 -a 0 -x {0.0 3.0 4 ------- null}
+ -t 0.78704 -s 3 -d 2 -p ack -e 40 -c 0 -i 11 -a 0 -x {3.0 0.0 4 ------- null}
- -t 0.78704 -s 3 -d 2 -p ack -e 40 -c 0 -i 11 -a 0 -x {3.0 0.0 4 ------- null}
h -t 0.78704 -s 3 -d 2 -p ack -e 40 -c 0 -i 11 -a 0 -x {3.0 0.0 -1 ------- null}
r -t 0.79104 -s 3 -d 2 -p ack -e 40 -c 0 -i 10 -a 0 -x {3.0 0.0 3 ------- null}
+ -t 0.79104 -s 2 -d 0 -p ack -e 40 -c 0 -i 10 -a 0 -x {3.0 0.0 3 ------- null}
- -t 0.79104 -s 2 -d 0 -p ack -e 40 -c 0 -i 10 -a 0 -x {3.0 0.0 3 ------- null}
h -t 0.79104 -s 2 -d 0 -p ack -e 40 -c 0 -i 10 -a 0 -x {3.0 0.0 -1 ------- null}
r -t 0.80368 -s 2 -d 3 -p tcp -e 1040 -c 0 -i 8 -a 0 -x {0.0 3.0 5 ------- null}
+ -t 0.80368 -s 3 -d 2 -p ack -e 40 -c 0 -i 12 -a 0 -x {3.0 0.0 5 ------- null}
- -t 0.80368 -s 3 -d 2 -p ack -e 40 -c 0 -i 12 -a 0 -x {3.0 0.0 5 ------- null}
h -t 0.80368 -s 3 -d 2 -p ack -e 40 -c 0 -i 12 -a 0 -x {3.0 0.0 -1 ------- null}
r -t 0.80768 -s 3 -d 2 -p ack -e 40 -c 0 -i 11 -a 0 -x {3.0 0.0 4 ------- null}
+ -t 0.80768 -s 2 -d 0 -p ack -e 40 -c 0 -i 11 -a 0 -x {3.0 0.0 4 ------- null}
- -t 0.80768 -s 2 -d 0 -p ack -e 40 -c 0 -i 11 -a 0 -x {3.0 0.0 4 ------- null}
h -t 0.80768 -s 2 -d 0 -p ack -e 40 -c 0 -i 11 -a 0 -x {3.0 0.0 -1 ------- null}
r -t 0.81168 -s 2 -d 0 -p ack -e 40 -c 0 -i 10 -a 0 -x {3.0 0.0 3 ------- null}
+ -t 0.81168 -s 0 -d 2 -p tcp -e 1040 -c 0 -i 13 -a 0 -x {0.0 3.0 7 ------- null}
- -t 0.81168 -s 0 -d 2 -p tcp -e 1040 -c 0 -i 13 -a 0 -x {0.0 3.0 7 ------- null}
h -t 0.81168 -s 0 -d 2 -p tcp -e 1040 -c 0 -i 13 -a 0 -x {0.0 3.0 -1 ------- null}
+ -t 0.81168 -s 0 -d 2 -p tcp -e 1040 -c 0 -i 14 -a 0 -x {0.0 3.0 8 ------- null}
r -t 0.82032 -s 2 -d 3 -p tcp -e 1040 -c 0 -i 9 -a 0 -x {0.0 3.0 6 ------- null}
+ -t 0.82032 -s 3 -d 2 -p ack -e 40 -c 0 -i 15 -a 0 -x {3.0 0.0 6 ------- null}
- -t 0.82032 -s 3 -d 2 -p ack -e 40 -c 0 -i 15 -a 0 -x {3.0 0.0 6 ------- null}
h -t 0.82032 -s 3 -d 2 -p ack -e 40 -c 0 -i 15 -a 0 -x {3.0 0.0 -1 ------- null}
r -t 0.82432 -s 3 -d 2 -p ack -e 40 -c 0 -i 12 -a 0 -x {3.0 0.0 5 ------- null}
+ -t 0.82432 -s 2 -d 0 -p ack -e 40 -c 0 -i 12 -a 0 -x {3.0 0.0 5 ------- null}
- -t 0.82432 -s 2 -d 0 -p ack -e 40 -c 0 -i 12 -a 0 -x {3.0 0.0 5 ------- null}
h -t 0.82432 -s 2 -d 0 -p ack -e 40 -c 0 -i 12 -a 0 -x {3.0 0.0 -1 ------- null}
r -t 0.82832 -s 2 -d 0 -p ack -e 40 -c 0 -i 11 -a 0 -x {3.0 0.0 4 ------- null}
+ -t 0.82832 -s 0 -d 2 -p tcp -e 1040 -c 0 -i 16 -a 0 -x {0.0 3.0 9 ------- null}
+ -t 0.82832 -s 0 -d 2 -p tcp -e 1040 -c 0 -i 17 -a 0 -x {0.0 3.0 10 ------- null}
- -t 0.82832 -s 0 -d 2 -p tcp -e 1040 -c 0 -i 14 -a 0 -x {0.0 3.0 8 ------- null}
h -t 0.82832 -s 0 -d 2 -p tcp -e 1040 -c 0 -i 14 -a 0 -x {0.0 3.0 -1 ------- null}
r -t 0.84096 -s 3 -d 2 -p ack -e 40 -c 0 -i 15 -a 0 -x {3.0 0.0 6 ------- null}
+ -t 0.84096 -s 2 -d 0 -p ack -e 40 -c 0 -i 15 -a 0 -x {3.0 0.0 6 ------- null}
- -t 0.84096 -s 2 -d 0 -p ack -e 40 -c 0 -i 15 -a 0 -x {3.0 0.0 6 ------- null}
h -t 0.84096 -s 2 -d 0 -p ack -e 40 -c 0 -i 15 -a 0 -x {3.0 0.0 -1 ------- null}
r -t 0.84496 -s 2 -d 0 -p ack -e 40 -c 0 -i 12 -a 0 -x {3.0 0.0 5 ------- null}
+ -t 0.84496 -s 0 -d 2 -p tcp -e 1040 -c 0 -i 18 -a 0 -x {0.0 3.0 11 ------- null}
+ -t 0.84496 -s 0 -d 2 -p tcp -e 1040 -c 0 -i 19 -a 0 -x {0.0 3.0 12 ------- null}
- -t 0.84496 -s 0 -d 2 -p tcp -e 1040 -c 0 -i 16 -a 0 -x {0.0 3.0 9 ------- null}
h -t 0.84496 -s 0 -d 2 -p tcp -e 1040 -c 0 -i 16 -a 0 -x {0.0 3.0 -1 ------- null}
r -t 0.84832 -s 0 -d 2 -p tcp -e 1040 -c 0 -i 13 -a 0 -x {0.0 3.0 7 ------- null}
+ -t 0.84832 -s 2 -d 3 -p tcp -e 1040 -c 0 -i 13 -a 0 -x {0.0 3.0 7 ------- null}
- -t 0.84832 -s 2 -d 3 -p tcp -e 1040 -c 0 -i 13 -a 0 -x {0.0 3.0 7 ------- null}
h -t 0.84832 -s 2 -d 3 -p tcp -e 1040 -c 0 -i 13 -a 0 -x {0.0 3.0 -1 ------- null}
r -t 0.8616 -s 2 -d 0 -p ack -e 40 -c 0 -i 15 -a 0 -x {3.0 0.0 6 ------- null}
+ -t 0.8616 -s 0 -d 2 -p tcp -e 1040 -c 0 -i 20 -a 0 -x {0.0 3.0 13 ------- null}
+ -t 0.8616 -s 0 -d 2 -p tcp -e 1040 -c 0 -i 21 -a 0 -x {0.0 3.0 14 ------- null}
- -t 0.8616 -s 0 -d 2 -p tcp -e 1040 -c 0 -i 17 -a 0 -x {0.0 3.0 10 ------- null}
h -t 0.8616 -s 0 -d 2 -p tcp -e 1040 -c 0 -i 17 -a 0 -x {0.0 3.0 -1 ------- null}
r -t 0.86496 -s 0 -d 2 -p tcp -e 1040 -c 0 -i 14 -a 0 -x {0.0 3.0 8 ------- null}
+ -t 0.86496 -s 2 -d 3 -p tcp -e 1040 -c 0 -i 14 -a 0 -x {0.0 3.0 8 ------- null}
- -t 0.86496 -s 2 -d 3 -p tcp -e 1040 -c 0 -i 14 -a 0 -x {0.0 3.0 8 ------- null}
h -t 0.86496 -s 2 -d 3 -p tcp -e 1040 -c 0 -i 14 -a 0 -x {0.0 3.0 -1 ------- null}
- -t 0.87824 -s 0 -d 2 -p tcp -e 1040 -c 0 -i 18 -a 0 -x {0.0 3.0 11 ------- null}
h -t 0.87824 -s 0 -d 2 -p tcp -e 1040 -c 0 -i 18 -a 0 -x {0.0 3.0 -1 ------- null}
r -t 0.8816 -s 0 -d 2 -p tcp -e 1040 -c 0 -i 16 -a 0 -x {0.0 3.0 9 ------- null}
+ -t 0.8816 -s 2 -d 3 -p tcp -e 1040 -c 0 -i 16 -a 0 -x {0.0 3.0 9 ------- null}
- -t 0.8816 -s 2 -d 3 -p tcp -e 1040 -c 0 -i 16 -a 0 -x {0.0 3.0 9 ------- null}
h -t 0.8816 -s 2 -d 3 -p tcp -e 1040 -c 0 -i 16 -a 0 -x {0.0 3.0 -1 ------- null}
r -t 0.88496 -s 2 -d 3 -p tcp -e 1040 -c 0 -i 13 -a 0 -x {0.0 3.0 7 ------- null}
+ -t 0.88496 -s 3 -d 2 -p ack -e 40 -c 0 -i 22 -a 0 -x {3.0 0.0 7 ------- null}
- -t 0.88496 -s 3 -d 2 -p ack -e 40 -c 0 -i 22 -a 0 -x {3.0 0.0 7 ------- null}
h -t 0.88496 -s 3 -d 2 -p ack -e 40 -c 0 -i 22 -a 0 -x {3.0 0.0 -1 ------- null}
- -t 0.89488 -s 0 -d 2 -p tcp -e 1040 -c 0 -i 19 -a 0 -x {0.0 3.0 12 ------- null}
h -t 0.89488 -s 0 -d 2 -p tcp -e 1040 -c 0 -i 19 -a 0 -x {0.0 3.0 -1 ------- null}
r -t 0.89824 -s 0 -d 2 -p tcp -e 1040 -c 0 -i 17 -a 0 -x {0.0 3.0 10 ------- null}
+ -t 0.89824 -s 2 -d 3 -p tcp -e 1040 -c 0 -i 17 -a 0 -x {0.0 3.0 10 ------- null}
- -t 0.89824 -s 2 -d 3 -p tcp -e 1040 -c 0 -i 17 -a 0 -x {0.0 3.0 10 ------- null}
h -t 0.89824 -s 2 -d 3 -p tcp -e 1040 -c 0 -i 17 -a 0 -x {0.0 3.0 -1 ------- null}
r -t 0.9016 -s 2 -d 3 -p tcp -e 1040 -c 0 -i 14 -a 0 -x {0.0 3.0 8 ------- null}
+ -t 0.9016 -s 3 -d 2 -p ack -e 40 -c 0 -i 23 -a 0 -x {3.0 0.0 8 ------- null}
- -t 0.9016 -s 3 -d 2 -p ack -e 40 -c 0 -i 23 -a 0 -x {3.0 0.0 8 ------- null}
h -t 0.9016 -s 3 -d 2 -p ack -e 40 -c 0 -i 23 -a 0 -x {3.0 0.0 -1 ------- null}
r -t 0.9056 -s 3 -d 2 -p ack -e 40 -c 0 -i 22 -a 0 -x {3.0 0.0 7 ------- null}
+ -t 0.9056 -s 2 -d 0 -p ack -e 40 -c 0 -i 22 -a 0 -x {3.0 0.0 7 ------- null}
- -t 0.9056 -s 2 -d 0 -p ack -e 40 -c 0 -i 22 -a 0 -x {3.0 0.0 7 ------- null}
h -t 0.9056 -s 2 -d 0 -p ack -e 40 -c 0 -i 22 -a 0 -x {3.0 0.0 -1 ------- null}
- -t 0.91152 -s 0 -d 2 -p tcp -e 1040 -c 0 -i 20 -a 0 -x {0.0 3.0 13 ------- null}
h -t 0.91152 -s 0 -d 2 -p tcp -e 1040 -c 0 -i 20 -a 0 -x {0.0 3.0 -1 ------- null}
r -t 0.91488 -s 0 -d 2 -p tcp -e 1040 -c 0 -i 18 -a 0 -x {0.0 3.0 11 ------- null}
+ -t 0.91488 -s 2 -d 3 -p tcp -e 1040 -c 0 -i 18 -a 0 -x {0.0 3.0 11 ------- null}
- -t 0.91488 -s 2 -d 3 -p tcp -e 1040 -c 0 -i 18 -a 0 -x {0.0 3.0 11 ------- null}
h -t 0.91488 -s 2 -d 3 -p tcp -e 1040 -c 0 -i 18 -a 0 -x {0.0 3.0 -1 ------- null}
r -t 0.91824 -s 2 -d 3 -p tcp -e 1040 -c 0 -i 16 -a 0 -x {0.0 3.0 9 ------- null}
+ -t 0.91824 -s 3 -d 2 -p ack -e 40 -c 0 -i 24 -a 0 -x {3.0 0.0 9 ------- null}
- -t 0.91824 -s 3 -d 2 -p ack -e 40 -c 0 -i 24 -a 0 -x {3.0 0.0 9 ------- null}
h -t 0.91824 -s 3 -d 2 -p ack -e 40 -c 0 -i 24 -a 0 -x {3.0 0.0 -1 ------- null}
r -t 0.92224 -s 3 -d 2 -p ack -e 40 -c 0 -i 23 -a 0 -x {3.0 0.0 8 ------- null}
+ -t 0.92224 -s 2 -d 0 -p ack -e 40 -c 0 -i 23 -a 0 -x {3.0 0.0 8 ------- null}
- -t 0.92224 -s 2 -d 0 -p ack -e 40 -c 0 -i 23 -a 0 -x {3.0 0.0 8 ------- null}
h -t 0.92224 -s 2 -d 0 -p ack -e 40 -c 0 -i 23 -a 0 -x {3.0 0.0 -1 ------- null}
r -t 0.92624 -s 2 -d 0 -p ack -e 40 -c 0 -i 22 -a 0 -x {3.0 0.0 7 ------- null}
+ -t 0.92624 -s 0 -d 2 -p tcp -e 1040 -c 0 -i 25 -a 0 -x {0.0 3.0 15 ------- null}
+ -t 0.92624 -s 0 -d 2 -p tcp -e 1040 -c 0 -i 26 -a 0 -x {0.0 3.0 16 ------- null}
- -t 0.92816 -s 0 -d 2 -p tcp -e 1040 -c 0 -i 21 -a 0 -x {0.0 3.0 14 ------- null}
h -t 0.92816 -s 0 -d 2 -p tcp -e 1040 -c 0 -i 21 -a 0 -x {0.0 3.0 -1 ------- null}
r -t 0.93152 -s 0 -d 2 -p tcp -e 1040 -c 0 -i 19 -a 0 -x {0.0 3.0 12 ------- null}
+ -t 0.93152 -s 2 -d 3 -p tcp -e 1040 -c 0 -i 19 -a 0 -x {0.0 3.0 12 ------- null}
- -t 0.93152 -s 2 -d 3 -p tcp -e 1040 -c 0 -i 19 -a 0 -x {0.0 3.0 12 ------- null}
h -t 0.93152 -s 2 -d 3 -p tcp -e 1040 -c 0 -i 19 -a 0 -x {0.0 3.0 -1 ------- null}
r -t 0.93488 -s 2 -d 3 -p tcp -e 1040 -c 0 -i 17 -a 0 -x {0.0 3.0 10 ------- null}
+ -t 0.93488 -s 3 -d 2 -p ack -e 40 -c 0 -i 27 -a 0 -x {3.0 0.0 10 ------- null}
- -t 0.93488 -s 3 -d 2 -p ack -e 40 -c 0 -i 27 -a 0 -x {3.0 0.0 10 ------- null}
h -t 0.93488 -s 3 -d 2 -p ack -e 40 -c 0 -i 27 -a 0 -x {3.0 0.0 -1 ------- null}
r -t 0.93888 -s 3 -d 2 -p ack -e 40 -c 0 -i 24 -a 0 -x {3.0 0.0 9 ------- null}
+ -t 0.93888 -s 2 -d 0 -p ack -e 40 -c 0 -i 24 -a 0 -x {3.0 0.0 9 ------- null}
- -t 0.93888 -s 2 -d 0 -p ack -e 40 -c 0 -i 24 -a 0 -x {3.0 0.0 9 ------- null}
h -t 0.93888 -s 2 -d 0 -p ack -e 40 -c 0 -i 24 -a 0 -x {3.0 0.0 -1 ------- null}
r -t 0.94288 -s 2 -d 0 -p ack -e 40 -c 0 -i 23 -a 0 -x {3.0 0.0 8 ------- null}
+ -t 0.94288 -s 0 -d 2 -p tcp -e 1040 -c 0 -i 28 -a 0 -x {0.0 3.0 17 ------- null}
+ -t 0.94288 -s 0 -d 2 -p tcp -e 1040 -c 0 -i 29 -a 0 -x {0.0 3.0 18 ------- null}
- -t 0.9448 -s 0 -d 2 -p tcp -e 1040 -c 0 -i 25 -a 0 -x {0.0 3.0 15 ------- null}
h -t 0.9448 -s 0 -d 2 -p tcp -e 1040 -c 0 -i 25 -a 0 -x {0.0 3.0 -1 ------- null}
r -t 0.94816 -s 0 -d 2 -p tcp -e 1040 -c 0 -i 20 -a 0 -x {0.0 3.0 13 ------- null}
+ -t 0.94816 -s 2 -d 3 -p tcp -e 1040 -c 0 -i 20 -a 0 -x {0.0 3.0 13 ------- null}
- -t 0.94816 -s 2 -d 3 -p tcp -e 1040 -c 0 -i 20 -a 0 -x {0.0 3.0 13 ------- null}
h -t 0.94816 -s 2 -d 3 -p tcp -e 1040 -c 0 -i 20 -a 0 -x {0.0 3.0 -1 ------- null}
r -t 0.95152 -s 2 -d 3 -p tcp -e 1040 -c 0 -i 18 -a 0 -x {0.0 3.0 11 ------- null}
+ -t 0.95152 -s 3 -d 2 -p ack -e 40 -c 0 -i 30 -a 0 -x {3.0 0.0 11 ------- null}
- -t 0.95152 -s 3 -d 2 -p ack -e 40 -c 0 -i 30 -a 0 -x {3.0 0.0 11 ------- null}
h -t 0.95152 -s 3 -d 2 -p ack -e 40 -c 0 -i 30 -a 0 -x {3.0 0.0 -1 ------- null}
r -t 0.95552 -s 3 -d 2 -p ack -e 40 -c 0 -i 27 -a 0 -x {3.0 0.0 10 ------- null}
+ -t 0.95552 -s 2 -d 0 -p ack -e 40 -c 0 -i 27 -a 0 -x {3.0 0.0 10 ------- null}
- -t 0.95552 -s 2 -d 0 -p ack -e 40 -c 0 -i 27 -a 0 -x {3.0 0.0 10 ------- null}
h -t 0.95552 -s 2 -d 0 -p ack -e 40 -c 0 -i 27 -a 0 -x {3.0 0.0 -1 ------- null}
r -t 0.95952 -s 2 -d 0 -p ack -e 40 -c 0 -i 24 -a 0 -x {3.0 0.0 9 ------- null}
+ -t 0.95952 -s 0 -d 2 -p tcp -e 1040 -c 0 -i 31 -a 0 -x {0.0 3.0 19 ------- null}
+ -t 0.95952 -s 0 -d 2 -p tcp -e 1040 -c 0 -i 32 -a 0 -x {0.0 3.0 20 ------- null}
- -t 0.96144 -s 0 -d 2 -p tcp -e 1040 -c 0 -i 26 -a 0 -x {0.0 3.0 16 ------- null}
h -t 0.96144 -s 0 -d 2 -p tcp -e 1040 -c 0 -i 26 -a 0 -x {0.0 3.0 -1 ------- null}
r -t 0.9648 -s 0 -d 2 -p tcp -e 1040 -c 0 -i 21 -a 0 -x {0.0 3.0 14 ------- null}
+ -t 0.9648 -s 2 -d 3 -p tcp -e 1040 -c 0 -i 21 -a 0 -x {0.0 3.0 14 ------- null}
- -t 0.9648 -s 2 -d 3 -p tcp -e 1040 -c 0 -i 21 -a 0 -x {0.0 3.0 14 ------- null}
h -t 0.9648 -s 2 -d 3 -p tcp -e 1040 -c 0 -i 21 -a 0 -x {0.0 3.0 -1 ------- null}
r -t 0.96816 -s 2 -d 3 -p tcp -e 1040 -c 0 -i 19 -a 0 -x {0.0 3.0 12 ------- null}
+ -t 0.96816 -s 3 -d 2 -p ack -e 40 -c 0 -i 33 -a 0 -x {3.0 0.0 12 ------- null}
- -t 0.96816 -s 3 -d 2 -p ack -e 40 -c 0 -i 33 -a 0 -x {3.0 0.0 12 ------- null}
h -t 0.96816 -s 3 -d 2 -p ack -e 40 -c 0 -i 33 -a 0 -x {3.0 0.0 -1 ------- null}
r -t 0.97216 -s 3 -d 2 -p ack -e 40 -c 0 -i 30 -a 0 -x {3.0 0.0 11 ------- null}
+ -t 0.97216 -s 2 -d 0 -p ack -e 40 -c 0 -i 30 -a 0 -x {3.0 0.0 11 ------- null}
- -t 0.97216 -s 2 -d 0 -p ack -e 40 -c 0 -i 30 -a 0 -x {3.0 0.0 11 ------- null}
h -t 0.97216 -s 2 -d 0 -p ack -e 40 -c 0 -i 30 -a 0 -x {3.0 0.0 -1 ------- null}
r -t 0.97616 -s 2 -d 0 -p ack -e 40 -c 0 -i 27 -a 0 -x {3.0 0.0 10 ------- null}
+ -t 0.97616 -s 0 -d 2 -p tcp -e 1040 -c 0 -i 34 -a 0 -x {0.0 3.0 21 ------- null}
+ -t 0.97616 -s 0 -d 2 -p tcp -e 1040 -c 0 -i 35 -a 0 -x {0.0 3.0 22 ------- null}
- -t 0.97808 -s 0 -d 2 -p tcp -e 1040 -c 0 -i 28 -a 0 -x {0.0 3.0 17 ------- null}
h -t 0.97808 -s 0 -d 2 -p tcp -e 1040 -c 0 -i 28 -a 0 -x {0.0 3.0 -1 ------- null}
r -t 0.98144 -s 0 -d 2 -p tcp -e 1040 -c 0 -i 25 -a 0 -x {0.0 3.0 15 ------- null}
+ -t 0.98144 -s 2 -d 3 -p tcp -e 1040 -c 0 -i 25 -a 0 -x {0.0 3.0 15 ------- null}
- -t 0.98144 -s 2 -d 3 -p tcp -e 1040 -c 0 -i 25 -a 0 -x {0.0 3.0 15 ------- null}
h -t 0.98144 -s 2 -d 3 -p tcp -e 1040 -c 0 -i 25 -a 0 -x {0.0 3.0 -1 ------- null}
r -t 0.9848 -s 2 -d 3 -p tcp -e 1040 -c 0 -i 20 -a 0 -x {0.0 3.0 13 ------- null}
+ -t 0.9848 -s 3 -d 2 -p ack -e 40 -c 0 -i 36 -a 0 -x {3.0 0.0 13 ------- null}
- -t 0.9848 -s 3 -d 2 -p ack -e 40 -c 0 -i 36 -a 0 -x {3.0 0.0 13 ------- null}
h -t 0.9848 -s 3 -d 2 -p ack -e 40 -c 0 -i 36 -a 0 -x {3.0 0.0 -1 ------- null}
r -t 0.9888 -s 3 -d 2 -p ack -e 40 -c 0 -i 33 -a 0 -x {3.0 0.0 12 ------- null}
+ -t 0.9888 -s 2 -d 0 -p ack -e 40 -c 0 -i 33 -a 0 -x {3.0 0.0 12 ------- null}
- -t 0.9888 -s 2 -d 0 -p ack -e 40 -c 0 -i 33 -a 0 -x {3.0 0.0 12 ------- null}
h -t 0.9888 -s 2 -d 0 -p ack -e 40 -c 0 -i 33 -a 0 -x {3.0 0.0 -1 ------- null}
r -t 0.9928 -s 2 -d 0 -p ack -e 40 -c 0 -i 30 -a 0 -x {3.0 0.0 11 ------- null}
+ -t 0.9928 -s 0 -d 2 -p tcp -e 1040 -c 0 -i 37 -a 0 -x {0.0 3.0 23 ------- null}
+ -t 0.9928 -s 0 -d 2 -p tcp -e 1040 -c 0 -i 38 -a 0 -x {0.0 3.0 24 ------- null}
- -t 0.99472 -s 0 -d 2 -p tcp -e 1040 -c 0 -i 29 -a 0 -x {0.0 3.0 18 ------- null}
h -t 0.99472 -s 0 -d 2 -p tcp -e 1040 -c 0 -i 29 -a 0 -x {0.0 3.0 -1 ------- null}
r -t 0.99808 -s 0 -d 2 -p tcp -e 1040 -c 0 -i 26 -a 0 -x {0.0 3.0 16 ------- null}
+ -t 0.99808 -s 2 -d 3 -p tcp -e 1040 -c 0 -i 26 -a 0 -x {0.0 3.0 16 ------- null}
- -t 0.99808 -s 2 -d 3 -p tcp -e 1040 -c 0 -i 26 -a 0 -x {0.0 3.0 16 ------- null}
h -t 0.99808 -s 2 -d 3 -p tcp -e 1040 -c 0 -i 26 -a 0 -x {0.0 3.0 -1 ------- null}
+ -t 1 -s 1 -d 2 -p cbr -e 500 -c 0 -i 39 -a 0 -x {1.0 3.1 0 ------- null}
- -t 1 -s 1 -d 2 -p cbr -e 500 -c 0 -i 39 -a 0 -x {1.0 3.1 0 ------- null}
h -t 1 -s 1 -d 2 -p cbr -e 500 -c 0 -i 39 -a 0 -x {1.0 3.1 -1 ------- null}
r -t 1.00144 -s 2 -d 3 -p tcp -e 1040 -c 0 -i 21 -a 0 -x {0.0 3.0 14 ------- null}
+ -t 1.00144 -s 3 -d 2 -p ack -e 40 -c 0 -i 40 -a 0 -x {3.0 0.0 14 ------- null}
- -t 1.00144 -s 3 -d 2 -p ack -e 40 -c 0 -i 40 -a 0 -x {3.0 0.0 14 ------- null}
h -t 1.00144 -s 3 -d 2 -p ack -e 40 -c 0 -i 40 -a 0 -x {3.0 0.0 -1 ------- null}
+ -t 1.005 -s 1 -d 2 -p cbr -e 500 -c 0 -i 41 -a 0 -x {1.0 3.1 1 ------- null}
r -t 1.00544 -s 3 -d 2 -p ack -e 40 -c 0 -i 36 -a 0 -x {3.0 0.0 13 ------- null}
+ -t 1.00544 -s 2 -d 0 -p ack -e 40 -c 0 -i 36 -a 0 -x {3.0 0.0 13 ------- null}
- -t 1.00544 -s 2 -d 0 -p ack -e 40 -c 0 -i 36 -a 0 -x {3.0 0.0 13 ------- null}
h -t 1.00544 -s 2 -d 0 -p ack -e 40 -c 0 -i 36 -a 0 -x {3.0 0.0 -1 ------- null}
- -t 1.008 -s 1 -d 2 -p cbr -e 500 -c 0 -i 41 -a 0 -x {1.0 3.1 1 ------- null}
h -t 1.008 -s 1 -d 2 -p cbr -e 500 -c 0 -i 41 -a 0 -x {1.0 3.1 -1 ------- null}
r -t 1.00944 -s 2 -d 0 -p ack -e 40 -c 0 -i 33 -a 0 -x {3.0 0.0 12 ------- null}
+ -t 1.00944 -s 0 -d 2 -p tcp -e 1040 -c 0 -i 42 -a 0 -x {0.0 3.0 25 ------- null}
+ -t 1.00944 -s 0 -d 2 -p tcp -e 1040 -c 0 -i 43 -a 0 -x {0.0 3.0 26 ------- null}
+ -t 1.01 -s 1 -d 2 -p cbr -e 500 -c 0 -i 44 -a 0 -x {1.0 3.1 2 ------- null}
- -t 1.01136 -s 0 -d 2 -p tcp -e 1040 -c 0 -i 31 -a 0 -x {0.0 3.0 19 ------- null}
h -t 1.01136 -s 0 -d 2 -p tcp -e 1040 -c 0 -i 31 -a 0 -x {0.0 3.0 -1 ------- null}
r -t 1.01472 -s 0 -d 2 -p tcp -e 1040 -c 0 -i 28 -a 0 -x {0.0 3.0 17 ------- null}
+ -t 1.01472 -s 2 -d 3 -p tcp -e 1040 -c 0 -i 28 -a 0 -x {0.0 3.0 17 ------- null}
- -t 1.01472 -s 2 -d 3 -p tcp -e 1040 -c 0 -i 28 -a 0 -x {0.0 3.0 17 ------- null}
h -t 1.01472 -s 2 -d 3 -p tcp -e 1040 -c 0 -i 28 -a 0 -x {0.0 3.0 -1 ------- null}
+ -t 1.015 -s 1 -d 2 -p cbr -e 500 -c 0 -i 45 -a 0 -x {1.0 3.1 3 ------- null}
- -t 1.016 -s 1 -d 2 -p cbr -e 500 -c 0 -i 44 -a 0 -x {1.0 3.1 2 ------- null}
h -t 1.016 -s 1 -d 2 -p cbr -e 500 -c 0 -i 44 -a 0 -x {1.0 3.1 -1 ------- null}
r -t 1.01808 -s 2 -d 3 -p tcp -e 1040 -c 0 -i 25 -a 0 -x {0.0 3.0 15 ------- null}
+ -t 1.01808 -s 3 -d 2 -p ack -e 40 -c 0 -i 46 -a 0 -x {3.0 0.0 15 ------- null}
- -t 1.01808 -s 3 -d 2 -p ack -e 40 -c 0 -i 46 -a 0 -x {3.0 0.0 15 ------- null}
h -t 1.01808 -s 3 -d 2 -p ack -e 40 -c 0 -i 46 -a 0 -x {3.0 0.0 -1 ------- null}
+ -t 1.02 -s 1 -d 2 -p cbr -e 500 -c 0 -i 47 -a 0 -x {1.0 3.1 4 ------- null}
r -t 1.02208 -s 3 -d 2 -p ack -e 40 -c 0 -i 40 -a 0 -x {3.0 0.0 14 ------- null}
+ -t 1.02208 -s 2 -d 0 -p ack -e 40 -c 0 -i 40 -a 0 -x {3.0 0.0 14 ------- null}
- -t 1.02208 -s 2 -d 0 -p ack -e 40 -c 0 -i 40 -a 0 -x {3.0 0.0 14 ------- null}
h -t 1.02208 -s 2 -d 0 -p ack -e 40 -c 0 -i 40 -a 0 -x {3.0 0.0 -1 ------- null}
- -t 1.024 -s 1 -d 2 -p cbr -e 500 -c 0 -i 45 -a 0 -x {1.0 3.1 3 ------- null}
h -t 1.024 -s 1 -d 2 -p cbr -e 500 -c 0 -i 45 -a 0 -x {1.0 3.1 -1 ------- null}
+ -t 1.025 -s 1 -d 2 -p cbr -e 500 -c 0 -i 48 -a 0 -x {1.0 3.1 5 ------- null}
r -t 1.02608 -s 2 -d 0 -p ack -e 40 -c 0 -i 36 -a 0 -x {3.0 0.0 13 ------- null}
+ -t 1.02608 -s 0 -d 2 -p tcp -e 1040 -c 0 -i 49 -a 0 -x {0.0 3.0 27 ------- null}
+ -t 1.02608 -s 0 -d 2 -p tcp -e 1040 -c 0 -i 50 -a 0 -x {0.0 3.0 28 ------- null}
- -t 1.028 -s 0 -d 2 -p tcp -e 1040 -c 0 -i 32 -a 0 -x {0.0 3.0 20 ------- null}
h -t 1.028 -s 0 -d 2 -p tcp -e 1040 -c 0 -i 32 -a 0 -x {0.0 3.0 -1 ------- null}
r -t 1.028 -s 1 -d 2 -p cbr -e 500 -c 0 -i 39 -a 0 -x {1.0 3.1 0 ------- null}
+ -t 1.028 -s 2 -d 3 -p cbr -e 500 -c 0 -i 39 -a 0 -x {1.0 3.1 0 ------- null}
+ -t 1.03 -s 1 -d 2 -p cbr -e 500 -c 0 -i 51 -a 0 -x {1.0 3.1 6 ------- null}
r -t 1.03136 -s 0 -d 2 -p tcp -e 1040 -c 0 -i 29 -a 0 -x {0.0 3.0 18 ------- null}
+ -t 1.03136 -s 2 -d 3 -p tcp -e 1040 -c 0 -i 29 -a 0 -x {0.0 3.0 18 ------- null}
- -t 1.03136 -s 2 -d 3 -p cbr -e 500 -c 0 -i 39 -a 0 -x {1.0 3.1 0 ------- null}
h -t 1.03136 -s 2 -d 3 -p cbr -e 500 -c 0 -i 39 -a 0 -x {1.0 3.1 -1 ------- null}
- -t 1.032 -s 1 -d 2 -p cbr -e 500 -c 0 -i 47 -a 0 -x {1.0 3.1 4 ------- null}
h -t 1.032 -s 1 -d 2 -p cbr -e 500 -c 0 -i 47 -a 0 -x {1.0 3.1 -1 ------- null}
r -t 1.03472 -s 2 -d 3 -p tcp -e 1040 -c 0 -i 26 -a 0 -x {0.0 3.0 16 ------- null}
+ -t 1.03472 -s 3 -d 2 -p ack -e 40 -c 0 -i 52 -a 0 -x {3.0 0.0 16 ------- null}
- -t 1.03472 -s 3 -d 2 -p ack -e 40 -c 0 -i 52 -a 0 -x {3.0 0.0 16 ------- null}
h -t 1.03472 -s 3 -d 2 -p ack -e 40 -c 0 -i 52 -a 0 -x {3.0 0.0 -1 ------- null}
+ -t 1.035 -s 1 -d 2 -p cbr -e 500 -c 0 -i 53 -a 0 -x {1.0 3.1 7 ------- null}
r -t 1.036 -s 1 -d 2 -p cbr -e 500 -c 0 -i 41 -a 0 -x {1.0 3.1 1 ------- null}
+ -t 1.036 -s 2 -d 3 -p cbr -e 500 -c 0 -i 41 -a 0 -x {1.0 3.1 1 ------- null}
r -t 1.03872 -s 3 -d 2 -p ack -e 40 -c 0 -i 46 -a 0 -x {3.0 0.0 15 ------- null}
+ -t 1.03872 -s 2 -d 0 -p ack -e 40 -c 0 -i 46 -a 0 -x {3.0 0.0 15 ------- null}
- -t 1.03872 -s 2 -d 0 -p ack -e 40 -c 0 -i 46 -a 0 -x {3.0 0.0 15 ------- null}
h -t 1.03872 -s 2 -d 0 -p ack -e 40 -c 0 -i 46 -a 0 -x {3.0 0.0 -1 ------- null}
- -t 1.03936 -s 2 -d 3 -p tcp -e 1040 -c 0 -i 29 -a 0 -x {0.0 3.0 18 ------- null}
h -t 1.03936 -s 2 -d 3 -p tcp -e 1040 -c 0 -i 29 -a 0 -x {0.0 3.0 -1 ------- null}
+ -t 1.04 -s 1 -d 2 -p cbr -e 500 -c 0 -i 54 -a 0 -x {1.0 3.1 8 ------- null}
- -t 1.04 -s 1 -d 2 -p cbr -e 500 -c 0 -i 48 -a 0 -x {1.0 3.1 5 ------- null}
h -t 1.04 -s 1 -d 2 -p cbr -e 500 -c 0 -i 48 -a 0 -x {1.0 3.1 -1 ------- null}
r -t 1.04272 -s 2 -d 0 -p ack -e 40 -c 0 -i 40 -a 0 -x {3.0 0.0 14 ------- null}
+ -t 1.04272 -s 0 -d 2 -p tcp -e 1040 -c 0 -i 55 -a 0 -x {0.0 3.0 29 ------- null}
+ -t 1.04272 -s 0 -d 2 -p tcp -e 1040 -c 0 -i 56 -a 0 -x {0.0 3.0 30 ------- null}
d -t 1.04272 -s 0 -d 2 -p tcp -e 1040 -c 0 -i 56 -a 0 -x {0.0 3.0 30 ------- null}
r -t 1.044 -s 1 -d 2 -p cbr -e 500 -c 0 -i 44 -a 0 -x {1.0 3.1 2 ------- null}
+ -t 1.044 -s 2 -d 3 -p cbr -e 500 -c 0 -i 44 -a 0 -x {1.0 3.1 2 ------- null}
- -t 1.04464 -s 0 -d 2 -p tcp -e 1040 -c 0 -i 34 -a 0 -x {0.0 3.0 21 ------- null}
h -t 1.04464 -s 0 -d 2 -p tcp -e 1040 -c 0 -i 34 -a 0 -x {0.0 3.0 -1 ------- null}
+ -t 1.045 -s 1 -d 2 -p cbr -e 500 -c 0 -i 57 -a 0 -x {1.0 3.1 9 ------- null}
r -t 1.048 -s 0 -d 2 -p tcp -e 1040 -c 0 -i 31 -a 0 -x {0.0 3.0 19 ------- null}
+ -t 1.048 -s 2 -d 3 -p tcp -e 1040 -c 0 -i 31 -a 0 -x {0.0 3.0 19 ------- null}
- -t 1.048 -s 1 -d 2 -p cbr -e 500 -c 0 -i 51 -a 0 -x {1.0 3.1 6 ------- null}
h -t 1.048 -s 1 -d 2 -p cbr -e 500 -c 0 -i 51 -a 0 -x {1.0 3.1 -1 ------- null}
+ -t 1.05 -s 1 -d 2 -p cbr -e 500 -c 0 -i 58 -a 0 -x {1.0 3.1 10 ------- null}
r -t 1.05136 -s 2 -d 3 -p tcp -e 1040 -c 0 -i 28 -a 0 -x {0.0 3.0 17 ------- null}
+ -t 1.05136 -s 3 -d 2 -p ack -e 40 -c 0 -i 59 -a 0 -x {3.0 0.0 17 ------- null}
- -t 1.05136 -s 3 -d 2 -p ack -e 40 -c 0 -i 59 -a 0 -x {3.0 0.0 17 ------- null}
h -t 1.05136 -s 3 -d 2 -p ack -e 40 -c 0 -i 59 -a 0 -x {3.0 0.0 -1 ------- null}
r -t 1.052 -s 1 -d 2 -p cbr -e 500 -c 0 -i 45 -a 0 -x {1.0 3.1 3 ------- null}
+ -t 1.052 -s 2 -d 3 -p cbr -e 500 -c 0 -i 45 -a 0 -x {1.0 3.1 3 ------- null}
+ -t 1.055 -s 1 -d 2 -p cbr -e 500 -c 0 -i 60 -a 0 -x {1.0 3.1 11 ------- null}
r -t 1.05536 -s 3 -d 2 -p ack -e 40 -c 0 -i 52 -a 0 -x {3.0 0.0 16 ------- null}
+ -t 1.05536 -s 2 -d 0 -p ack -e 40 -c 0 -i 52 -a 0 -x {3.0 0.0 16 ------- null}
- -t 1.05536 -s 2 -d 0 -p ack -e 40 -c 0 -i 52 -a 0 -x {3.0 0.0 16 ------- null}
h -t 1.05536 -s 2 -d 0 -p ack -e 40 -c 0 -i 52 -a 0 -x {3.0 0.0 -1 ------- null}
- -t 1.056 -s 2 -d 3 -p cbr -e 500 -c 0 -i 41 -a 0 -x {1.0 3.1 1 ------- null}
h -t 1.056 -s 2 -d 3 -p cbr -e 500 -c 0 -i 41 -a 0 -x {1.0 3.1 -1 ------- null}
- -t 1.056 -s 1 -d 2 -p cbr -e 500 -c 0 -i 53 -a 0 -x {1.0 3.1 7 ------- null}
h -t 1.056 -s 1 -d 2 -p cbr -e 500 -c 0 -i 53 -a 0 -x {1.0 3.1 -1 ------- null}
r -t 1.05936 -s 2 -d 3 -p cbr -e 500 -c 0 -i 39 -a 0 -x {1.0 3.1 0 ------- null}
r -t 1.05936 -s 2 -d 0 -p ack -e 40 -c 0 -i 46 -a 0 -x {3.0 0.0 15 ------- null}
+ -t 1.05936 -s 0 -d 2 -p tcp -e 1040 -c 0 -i 61 -a 0 -x {0.0 3.0 31 ------- null}
+ -t 1.05936 -s 0 -d 2 -p tcp -e 1040 -c 0 -i 62 -a 0 -x {0.0 3.0 32 ------- null}
d -t 1.05936 -s 0 -d 2 -p tcp -e 1040 -c 0 -i 62 -a 0 -x {0.0 3.0 32 ------- null}
+ -t 1.06 -s 1 -d 2 -p cbr -e 500 -c 0 -i 63 -a 0 -x {1.0 3.1 12 ------- null}
r -t 1.06 -s 1 -d 2 -p cbr -e 500 -c 0 -i 47 -a 0 -x {1.0 3.1 4 ------- null}
+ -t 1.06 -s 2 -d 3 -p cbr -e 500 -c 0 -i 47 -a 0 -x {1.0 3.1 4 ------- null}
- -t 1.06128 -s 0 -d 2 -p tcp -e 1040 -c 0 -i 35 -a 0 -x {0.0 3.0 22 ------- null}
h -t 1.06128 -s 0 -d 2 -p tcp -e 1040 -c 0 -i 35 -a 0 -x {0.0 3.0 -1 ------- null}
- -t 1.064 -s 2 -d 3 -p cbr -e 500 -c 0 -i 44 -a 0 -x {1.0 3.1 2 ------- null}
h -t 1.064 -s 2 -d 3 -p cbr -e 500 -c 0 -i 44 -a 0 -x {1.0 3.1 -1 ------- null}
- -t 1.064 -s 1 -d 2 -p cbr -e 500 -c 0 -i 54 -a 0 -x {1.0 3.1 8 ------- null}
h -t 1.064 -s 1 -d 2 -p cbr -e 500 -c 0 -i 54 -a 0 -x {1.0 3.1 -1 ------- null}
r -t 1.06464 -s 0 -d 2 -p tcp -e 1040 -c 0 -i 32 -a 0 -x {0.0 3.0 20 ------- null}
+ -t 1.06464 -s 2 -d 3 -p tcp -e 1040 -c 0 -i 32 -a 0 -x {0.0 3.0 20 ------- null}