+ 0.5 0 2 tcp 40 ------- 0 0.0 3.0 0 0
- 0.5 0 2 tcp 40 ------- 0 0.0 3.0 0 0
r 0.52064 0 2 tcp 40 ------- 0 0.0 3.0 0 0
+ 0.52064 2 3 tcp 40 ------- 0 0.0 3.0 0 0
- 0.52064 2 3 tcp 40 ------- 0 0.0 3.0 0 0
r 0.54128 2 3 tcp 40 ------- 0 0.0 3.0 0 0
+ 0.54128 3 2 ack 40 ------- 0 3.0 0.0 0 1
- 0.54128 3 2 ack 40 ------- 0 3.0 0.0 0 1
r 0.56192 3 2 ack 40 ------- 0 3.0 0.0 0 1
+ 0.56192 2 0 ack 40 ------- 0 3.0 0.0 0 1
- 0.56192 2 0 ack 40 ------- 0 3.0 0.0 0 1
r 0.58256 2 0 ack 40 ------- 0 3.0 0.0 0 1
+ 0.58256 0 2 tcp 1040 ------- 0 0.0 3.0 1 2
- 0.58256 0 2 tcp 1040 ------- 0 0.0 3.0 1 2
+ 0.58256 0 2 tcp 1040 ------- 0 0.0 3.0 2 3
- 0.5992 0 2 tcp 1040 ------- 0 0.0 3.0 2 3
r 0.6192 0 2 tcp 1040 ------- 0 0.0 3.0 1 2
+ 0.6192 2 3 tcp 1040 ------- 0 0.0 3.0 1 2
- 0.6192 2 3 tcp 1040 ------- 0 0.0 3.0 1 2
r 0.63584 0 2 tcp 1040 ------- 0 0.0 3.0 2 3
+ 0.63584 2 3 tcp 1040 ------- 0 0.0 3.0 2 3
- 0.63584 2 3 tcp 1040 ------- 0 0.0 3.0 2 3
r 0.65584 2 3 tcp 1040 ------- 0 0.0 3.0 1 2
+ 0.65584 3 2 ack 40 ------- 0 3.0 0.0 1 4
- 0.65584 3 2 ack 40 ------- 0 3.0 0.0 1 4
r 0.67248 2 3 tcp 1040 ------- 0 0.0 3.0 2 3
+ 0.67248 3 2 ack 40 ------- 0 3.0 0.0 2 5
- 0.67248 3 2 ack 40 ------- 0 3.0 0.0 2 5
r 0.67648 3 2 ack 40 ------- 0 3.0 0.0 1 4
+ 0.67648 2 0 ack 40 ------- 0 3.0 0.0 1 4
- 0.67648 2 0 ack 40 ------- 0 3.0 0.0 1 4
r 0.69312 3 2 ack 40 ------- 0 3.0 0.0 2 5
+ 0.69312 2 0 ack 40 ------- 0 3.0 0.0 2 5
- 0.69312 2 0 ack 40 ------- 0 3.0 0.0 2 5
r 0.69712 2 0 ack 40 ------- 0 3.0 0.0 1 4
+ 0.69712 0 2 tcp 1040 ------- 0 0.0 3.0 3 6
- 0.69712 0 2 tcp 1040 ------- 0 0.0 3.0 3 6
+ 0.69712 0 2 tcp 1040 ------- 0 0.0 3.0 4 7
r 0.71376 2 0 ack 40 ------- 0 3.0 0.0 2 5
+ 0.71376 0 2 tcp 1040 ------- 0 0.0 3.0 5 8
+ 0.71376 0 2 tcp 1040 ------- 0 0.0 3.0 6 9
- 0.71376 0 2 tcp 1040 ------- 0 0.0 3.0 4 7
- 0.7304 0 2 tcp 1040 ------- 0 0.0 3.0 5 8
r 0.73376 0 2 tcp 1040 ------- 0 0.0 3.0 3 6
+ 0.73376 2 3 tcp 1040 ------- 0 0.0 3.0 3 6
- 0.73376 2 3 tcp 1040 ------- 0 0.0 3.0 3 6
- 0.74704 0 2 tcp 1040 ------- 0 0.0 3.0 6 9
r 0.7504 0 2 tcp 1040 ------- 0 0.0 3.0 4 7
+ 0.7504 2 3 tcp 1040 ------- 0 0.0 3.0 4 7
- 0.7504 2 3 tcp 1040 ------- 0 0.0 3.0 4 7
r 0.76704 0 2 tcp 1040 ------- 0 0.0 3.0 5 8
+ 0.76704 2 3 tcp 1040 ------- 0 0.0 3.0 5 8
- 0.76704 2 3 tcp 1040 ------- 0 0.0 3.0 5 8
r 0.7704 2 3 tcp 1040 ------- 0 0.0 3.0 3 6
+ 0.7704 3 2 ack 40 ------- 0 3.0 0.0 3 10
- 0.7704 3 2 ack 40 ------- 0 3.0 0.0 3 10
r 0.78368 0 2 tcp 1040 ------- 0 0.0 3.0 6 9
+ 0.78368 2 3 tcp 1040 ------- 0 0.0 3.0 6 9
- 0.78368 2 3 tcp 1040 ------- 0 0.0 3.0 6 9
r 0.78704 2 3 tcp 1040 ------- 0 0.0 3.0 4 7
+ 0.78704 3 2 ack 40 ------- 0 3.0 0.0 4 11
- 0.78704 3 2 ack 40 ------- 0 3.0 0.0 4 11
r 0.79104 3 2 ack 40 ------- 0 3.0 0.0 3 10
+ 0.79104 2 0 ack 40 ------- 0 3.0 0.0 3 10
- 0.79104 2 0 ack 40 ------- 0 3.0 0.0 3 10
r 0.80368 2 3 tcp 1040 ------- 0 0.0 3.0 5 8
+ 0.80368 3 2 ack 40 ------- 0 3.0 0.0 5 12
- 0.80368 3 2 ack 40 ------- 0 3.0 0.0 5 12
r 0.80768 3 2 ack 40 ------- 0 3.0 0.0 4 11
+ 0.80768 2 0 ack 40 ------- 0 3.0 0.0 4 11
- 0.80768 2 0 ack 40 ------- 0 3.0 0.0 4 11
r 0.81168 2 0 ack 40 ------- 0 3.0 0.0 3 10
+ 0.81168 0 2 tcp 1040 ------- 0 0.0 3.0 7 13
- 0.81168 0 2 tcp 1040 ------- 0 0.0 3.0 7 13
+ 0.81168 0 2 tcp 1040 ------- 0 0.0 3.0 8 14
r 0.82032 2 3 tcp 1040 ------- 0 0.0 3.0 6 9
+ 0.82032 3 2 ack 40 ------- 0 3.0 0.0 6 15
- 0.82032 3 2 ack 40 ------- 0 3.0 0.0 6 15
r 0.82432 3 2 ack 40 ------- 0 3.0 0.0 5 12
+ 0.82432 2 0 ack 40 ------- 0 3.0 0.0 5 12
- 0.82432 2 0 ack 40 ------- 0 3.0 0.0 5 12
r 0.82832 2 0 ack 40 ------- 0 3.0 0.0 4 11
+ 0.82832 0 2 tcp 1040 ------- 0 0.0 3.0 9 16
+ 0.82832 0 2 tcp 1040 ------- 0 0.0 3.0 10 17
- 0.82832 0 2 tcp 1040 ------- 0 0.0 3.0 8 14
r 0.84096 3 2 ack 40 ------- 0 3.0 0.0 6 15
+ 0.84096 2 0 ack 40 ------- 0 3.0 0.0 6 15
- 0.84096 2 0 ack 40 ------- 0 3.0 0.0 6 15
r 0.84496 2 0 ack 40 ------- 0 3.0 0.0 5 12
+ 0.84496 0 2 tcp 1040 ------- 0 0.0 3.0 11 18
+ 0.84496 0 2 tcp 1040 ------- 0 0.0 3.0 12 19
- 0.84496 0 2 tcp 1040 ------- 0 0.0 3.0 9 16
r 0.84832 0 2 tcp 1040 ------- 0 0.0 3.0 7 13
+ 0.84832 2 3 tcp 1040 ------- 0 0.0 3.0 7 13
- 0.84832 2 3 tcp 1040 ------- 0 0.0 3.0 7 13
r 0.8616 2 0 ack 40 ------- 0 3.0 0.0 6 15
+ 0.8616 0 2 tcp 1040 ------- 0 0.0 3.0 13 20
+ 0.8616 0 2 tcp 1040 ------- 0 0.0 3.0 14 21
- 0.8616 0 2 tcp 1040 ------- 0 0.0 3.0 10 17
r 0.86496 0 2 tcp 1040 ------- 0 0.0 3.0 8 14
+ 0.86496 2 3 tcp 1040 ------- 0 0.0 3.0 8 14
- 0.86496 2 3 tcp 1040 ------- 0 0.0 3.0 8 14
- 0.87824 0 2 tcp 1040 ------- 0 0.0 3.0 11 18
r 0.8816 0 2 tcp 1040 ------- 0 0.0 3.0 9 16
+ 0.8816 2 3 tcp 1040 ------- 0 0.0 3.0 9 16
- 0.8816 2 3 tcp 1040 ------- 0 0.0 3.0 9 16
r 0.88496 2 3 tcp 1040 ------- 0 0.0 3.0 7 13
+ 0.88496 3 2 ack 40 ------- 0 3.0 0.0 7 22
- 0.88496 3 2 ack 40 ------- 0 3.0 0.0 7 22
- 0.89488 0 2 tcp 1040 ------- 0 0.0 3.0 12 19
r 0.89824 0 2 tcp 1040 ------- 0 0.0 3.0 10 17
+ 0.89824 2 3 tcp 1040 ------- 0 0.0 3.0 10 17
- 0.89824 2 3 tcp 1040 ------- 0 0.0 3.0 10 17
r 0.9016 2 3 tcp 1040 ------- 0 0.0 3.0 8 14
+ 0.9016 3 2 ack 40 ------- 0 3.0 0.0 8 23
- 0.9016 3 2 ack 40 ------- 0 3.0 0.0 8 23
r 0.9056 3 2 ack 40 ------- 0 3.0 0.0 7 22
+ 0.9056 2 0 ack 40 ------- 0 3.0 0.0 7 22
- 0.9056 2 0 ack 40 ------- 0 3.0 0.0 7 22
- 0.91152 0 2 tcp 1040 ------- 0 0.0 3.0 13 20
r 0.91488 0 2 tcp 1040 ------- 0 0.0 3.0 11 18
+ 0.91488 2 3 tcp 1040 ------- 0 0.0 3.0 11 18
- 0.91488 2 3 tcp 1040 ------- 0 0.0 3.0 11 18
r 0.91824 2 3 tcp 1040 ------- 0 0.0 3.0 9 16
+ 0.91824 3 2 ack 40 ------- 0 3.0 0.0 9 24
- 0.91824 3 2 ack 40 ------- 0 3.0 0.0 9 24
r 0.92224 3 2 ack 40 ------- 0 3.0 0.0 8 23
+ 0.92224 2 0 ack 40 ------- 0 3.0 0.0 8 23
- 0.92224 2 0 ack 40 ------- 0 3.0 0.0 8 23
r 0.92624 2 0 ack 40 ------- 0 3.0 0.0 7 22
+ 0.92624 0 2 tcp 1040 ------- 0 0.0 3.0 15 25
+ 0.92624 0 2 tcp 1040 ------- 0 0.0 3.0 16 26
- 0.92816 0 2 tcp 1040 ------- 0 0.0 3.0 14 21
r 0.93152 0 2 tcp 1040 ------- 0 0.0 3.0 12 19
+ 0.93152 2 3 tcp 1040 ------- 0 0.0 3.0 12 19
- 0.93152 2 3 tcp 1040 ------- 0 0.0 3.0 12 19
r 0.93488 2 3 tcp 1040 ------- 0 0.0 3.0 10 17
+ 0.93488 3 2 ack 40 ------- 0 3.0 0.0 10 27
- 0.93488 3 2 ack 40 ------- 0 3.0 0.0 10 27
r 0.93888 3 2 ack 40 ------- 0 3.0 0.0 9 24
+ 0.93888 2 0 ack 40 ------- 0 3.0 0.0 9 24
- 0.93888 2 0 ack 40 ------- 0 3.0 0.0 9 24
r 0.94288 2 0 ack 40 ------- 0 3.0 0.0 8 23
+ 0.94288 0 2 tcp 1040 ------- 0 0.0 3.0 17 28
+ 0.94288 0 2 tcp 1040 ------- 0 0.0 3.0 18 29
- 0.9448 0 2 tcp 1040 ------- 0 0.0 3.0 15 25
r 0.94816 0 2 tcp 1040 ------- 0 0.0 3.0 13 20
+ 0.94816 2 3 tcp 1040 ------- 0 0.0 3.0 13 20
- 0.94816 2 3 tcp 1040 ------- 0 0.0 3.0 13 20
r 0.95152 2 3 tcp 1040 ------- 0 0.0 3.0 11 18
+ 0.95152 3 2 ack 40 ------- 0 3.0 0.0 11 30
- 0.95152 3 2 ack 40 ------- 0 3.0 0.0 11 30
r 0.95552 3 2 ack 40 ------- 0 3.0 0.0 10 27
+ 0.95552 2 0 ack 40 ------- 0 3.0 0.0 10 27
- 0.95552 2 0 ack 40 ------- 0 3.0 0.0 10 27
r 0.95952 2 0 ack 40 ------- 0 3.0 0.0 9 24
+ 0.95952 0 2 tcp 1040 ------- 0 0.0 3.0 19 31
+ 0.95952 0 2 tcp 1040 ------- 0 0.0 3.0 20 32
- 0.96144 0 2 tcp 1040 ------- 0 0.0 3.0 16 26
r 0.9648 0 2 tcp 1040 ------- 0 0.0 3.0 14 21
+ 0.9648 2 3 tcp 1040 ------- 0 0.0 3.0 14 21
- 0.9648 2 3 tcp 1040 ------- 0 0.0 3.0 14 21
r 0.96816 2 3 tcp 1040 ------- 0 0.0 3.0 12 19
+ 0.96816 3 2 ack 40 ------- 0 3.0 0.0 12 33
- 0.96816 3 2 ack 40 ------- 0 3.0 0.0 12 33
r 0.97216 3 2 ack 40 ------- 0 3.0 0.0 11 30
+ 0.97216 2 0 ack 40 ------- 0 3.0 0.0 11 30
- 0.97216 2 0 ack 40 ------- 0 3.0 0.0 11 30
r 0.97616 2 0 ack 40 ------- 0 3.0 0.0 10 27
+ 0.97616 0 2 tcp 1040 ------- 0 0.0 3.0 21 34
+ 0.97616 0 2 tcp 1040 ------- 0 0.0 3.0 22 35
- 0.97808 0 2 tcp 1040 ------- 0 0.0 3.0 17 28
r 0.98144 0 2 tcp 1040 ------- 0 0.0 3.0 15 25
+ 0.98144 2 3 tcp 1040 ------- 0 0.0 3.0 15 25
- 0.98144 2 3 tcp 1040 ------- 0 0.0 3.0 15 25
r 0.9848 2 3 tcp 1040 ------- 0 0.0 3.0 13 20
+ 0.9848 3 2 ack 40 ------- 0 3.0 0.0 13 36
- 0.9848 3 2 ack 40 ------- 0 3.0 0.0 13 36
r 0.9888 3 2 ack 40 ------- 0 3.0 0.0 12 33
+ 0.9888 2 0 ack 40 ------- 0 3.0 0.0 12 33
- 0.9888 2 0 ack 40 ------- 0 3.0 0.0 12 33
r 0.9928 2 0 ack 40 ------- 0 3.0 0.0 11 30
+ 0.9928 0 2 tcp 1040 ------- 0 0.0 3.0 23 37
+ 0.9928 0 2 tcp 1040 ------- 0 0.0 3.0 24 38
- 0.99472 0 2 tcp 1040 ------- 0 0.0 3.0 18 29
r 0.99808 0 2 tcp 1040 ------- 0 0.0 3.0 16 26
+ 0.99808 2 3 tcp 1040 ------- 0 0.0 3.0 16 26
- 0.99808 2 3 tcp 1040 ------- 0 0.0 3.0 16 26
+ 1 1 2 cbr 500 ------- 0 1.0 3.1 0 39
- 1 1 2 cbr 500 ------- 0 1.0 3.1 0 39
r 1.00144 2 3 tcp 1040 ------- 0 0.0 3.0 14 21
+ 1.00144 3 2 ack 40 ------- 0 3.0 0.0 14 40
- 1.00144 3 2 ack 40 ------- 0 3.0 0.0 14 40
+ 1.005 1 2 cbr 500 ------- 0 1.0 3.1 1 41
r 1.00544 3 2 ack 40 ------- 0 3.0 0.0 13 36
+ 1.00544 2 0 ack 40 ------- 0 3.0 0.0 13 36
- 1.00544 2 0 ack 40 ------- 0 3.0 0.0 13 36
- 1.008 1 2 cbr 500 ------- 0 1.0 3.1 1 41
r 1.00944 2 0 ack 40 ------- 0 3.0 0.0 12 33
+ 1.00944 0 2 tcp 1040 ------- 0 0.0 3.0 25 42
+ 1.00944 0 2 tcp 1040 ------- 0 0.0 3.0 26 43
+ 1.01 1 2 cbr 500 ------- 0 1.0 3.1 2 44
- 1.01136 0 2 tcp 1040 ------- 0 0.0 3.0 19 31
r 1.01472 0 2 tcp 1040 ------- 0 0.0 3.0 17 28
+ 1.01472 2 3 tcp 1040 ------- 0 0.0 3.0 17 28
- 1.01472 2 3 tcp 1040 ------- 0 0.0 3.0 17 28
+ 1.015 1 2 cbr 500 ------- 0 1.0 3.1 3 45
- 1.016 1 2 cbr 500 ------- 0 1.0 3.1 2 44
r 1.01808 2 3 tcp 1040 ------- 0 0.0 3.0 15 25
+ 1.01808 3 2 ack 40 ------- 0 3.0 0.0 15 46
- 1.01808 3 2 ack 40 ------- 0 3.0 0.0 15 46
+ 1.02 1 2 cbr 500 ------- 0 1.0 3.1 4 47
r 1.02208 3 2 ack 40 ------- 0 3.0 0.0 14 40
+ 1.02208 2 0 ack 40 ------- 0 3.0 0.0 14 40
- 1.02208 2 0 ack 40 ------- 0 3.0 0.0 14 40
- 1.024 1 2 cbr 500 ------- 0 1.0 3.1 3 45
+ 1.025 1 2 cbr 500 ------- 0 1.0 3.1 5 48
r 1.02608 2 0 ack 40 ------- 0 3.0 0.0 13 36
+ 1.02608 0 2 tcp 1040 ------- 0 0.0 3.0 27 49
+ 1.02608 0 2 tcp 1040 ------- 0 0.0 3.0 28 50
- 1.028 0 2 tcp 1040 ------- 0 0.0 3.0 20 32
r 1.028 1 2 cbr 500 ------- 0 1.0 3.1 0 39
+ 1.028 2 3 cbr 500 ------- 0 1.0 3.1 0 39
+ 1.03 1 2 cbr 500 ------- 0 1.0 3.1 6 51
r 1.03136 0 2 tcp 1040 ------- 0 0.0 3.0 18 29
+ 1.03136 2 3 tcp 1040 ------- 0 0.0 3.0 18 29
- 1.03136 2 3 cbr 500 ------- 0 1.0 3.1 0 39
- 1.032 1 2 cbr 500 ------- 0 1.0 3.1 4 47
r 1.03472 2 3 tcp 1040 ------- 0 0.0 3.0 16 26
+ 1.03472 3 2 ack 40 ------- 0 3.0 0.0 16 52
- 1.03472 3 2 ack 40 ------- 0 3.0 0.0 16 52
+ 1.035 1 2 cbr 500 ------- 0 1.0 3.1 7 53
r 1.036 1 2 cbr 500 ------- 0 1.0 3.1 1 41
+ 1.036 2 3 cbr 500 ------- 0 1.0 3.1 1 41
r 1.03872 3 2 ack 40 ------- 0 3.0 0.0 15 46
+ 1.03872 2 0 ack 40 ------- 0 3.0 0.0 15 46
- 1.03872 2 0 ack 40 ------- 0 3.0 0.0 15 46
- 1.03936 2 3 tcp 1040 ------- 0 0.0 3.0 18 29
+ 1.04 1 2 cbr 500 ------- 0 1.0 3.1 8 54
- 1.04 1 2 cbr 500 ------- 0 1.0 3.1 5 48
r 1.04272 2 0 ack 40 ------- 0 3.0 0.0 14 40
+ 1.04272 0 2 tcp 1040 ------- 0 0.0 3.0 29 55
+ 1.04272 0 2 tcp 1040 ------- 0 0.0 3.0 30 56
d 1.04272 0 2 tcp 1040 ------- 0 0.0 3.0 30 56
r 1.044 1 2 cbr 500 ------- 0 1.0 3.1 2 44
+ 1.044 2 3 cbr 500 ------- 0 1.0 3.1 2 44
- 1.04464 0 2 tcp 1040 ------- 0 0.0 3.0 21 34
+ 1.045 1 2 cbr 500 ------- 0 1.0 3.1 9 57
r 1.048 0 2 tcp 1040 ------- 0 0.0 3.0 19 31
+ 1.048 2 3 tcp 1040 ------- 0 0.0 3.0 19 31
- 1.048 1 2 cbr 500 ------- 0 1.0 3.1 6 51
+ 1.05 1 2 cbr 500 ------- 0 1.0 3.1 10 58
r 1.05136 2 3 tcp 1040 ------- 0 0.0 3.0 17 28
+ 1.05136 3 2 ack 40 ------- 0 3.0 0.0 17 59
- 1.05136 3 2 ack 40 ------- 0 3.0 0.0 17 59
r 1.052 1 2 cbr 500 ------- 0 1.0 3.1 3 45
+ 1.052 2 3 cbr 500 ------- 0 1.0 3.1 3 45
+ 1.055 1 2 cbr 500 ------- 0 1.0 3.1 11 60
r 1.05536 3 2 ack 40 ------- 0 3.0 0.0 16 52
+ 1.05536 2 0 ack 40 ------- 0 3.0 0.0 16 52
- 1.05536 2 0 ack 40 ------- 0 3.0 0.0 16 52
- 1.056 2 3 cbr 500 ------- 0 1.0 3.1 1 41
- 1.056 1 2 cbr 500 ------- 0 1.0 3.1 7 53
r 1.05936 2 3 cbr 500 ------- 0 1.0 3.1 0 39
r 1.05936 2 0 ack 40 ------- 0 3.0 0.0 15 46
+ 1.05936 0 2 tcp 1040 ------- 0 0.0 3.0 31 61
+ 1.05936 0 2 tcp 1040 ------- 0 0.0 3.0 32 62
d 1.05936 0 2 tcp 1040 ------- 0 0.0 3.0 32 62
+ 1.06 1 2 cbr 500 ------- 0 1.0 3.1 12 63
r 1.06 1 2 cbr 500 ------- 0 1.0 3.1 4 47
+ 1.06 2 3 cbr 500 ------- 0 1.0 3.1 4 47
- 1.06128 0 2 tcp 1040 ------- 0 0.0 3.0 22 35
- 1.064 2 3 cbr 500 ------- 0 1.0 3.1 2 44
- 1.064 1 2 cbr 500 ------- 0 1.0 3.1 8 54
r 1.06464 0 2 tcp 1040 ------- 0 0.0 3.0 20 32
+ 1.06464 2 3 tcp 1040 ------- 0 0.0 3.0 20 32
+ 1.065 1 2 cbr 500 ------- 0 1.0 3.1 13 64
r 1.068 1 2 cbr 500 ------- 0 1.0 3.1 5 48
+ 1.068 2 3 cbr 500 ------- 0 1.0 3.1 5 48
+ 1.07 1 2 cbr 500 ------- 0 1.0 3.1 14 65
r 1.072 3 2 ack 40 ------- 0 3.0 0.0 17 59
+ 1.072 2 0 ack 40 ------- 0 3.0 0.0 17 59
- 1.072 2 0 ack 40 ------- 0 3.0 0.0 17 59
- 1.072 2 3 tcp 1040 ------- 0 0.0 3.0 19 31
- 1.072 1 2 cbr 500 ------- 0 1.0 3.1 9 57
+ 1.075 1 2 cbr 500 ------- 0 1.0 3.1 15 66
r 1.076 2 3 tcp 1040 ------- 0 0.0 3.0 18 29
+ 1.076 3 2 ack 40 ------- 0 3.0 0.0 18 67
- 1.076 3 2 ack 40 ------- 0 3.0 0.0 18 67
r 1.076 2 0 ack 40 ------- 0 3.0 0.0 16 52
+ 1.076 0 2 tcp 1040 ------- 0 0.0 3.0 33 68
+ 1.076 0 2 tcp 1040 ------- 0 0.0 3.0 34 69
d 1.076 0 2 tcp 1040 ------- 0 0.0 3.0 34 69
r 1.076 1 2 cbr 500 ------- 0 1.0 3.1 6 51
+ 1.076 2 3 cbr 500 ------- 0 1.0 3.1 6 51
- 1.07792 0 2 tcp 1040 ------- 0 0.0 3.0 23 37
+ 1.08 1 2 cbr 500 ------- 0 1.0 3.1 16 70
- 1.08 1 2 cbr 500 ------- 0 1.0 3.1 10 58
r 1.08128 0 2 tcp 1040 ------- 0 0.0 3.0 21 34
+ 1.08128 2 3 tcp 1040 ------- 0 0.0 3.0 21 34
r 1.084 2 3 cbr 500 ------- 0 1.0 3.1 1 41
r 1.084 1 2 cbr 500 ------- 0 1.0 3.1 7 53
+ 1.084 2 3 cbr 500 ------- 0 1.0 3.1 7 53
+ 1.085 1 2 cbr 500 ------- 0 1.0 3.1 17 71
- 1.088 1 2 cbr 500 ------- 0 1.0 3.1 11 60
- 1.08864 2 3 cbr 500 ------- 0 1.0 3.1 3 45
+ 1.09 1 2 cbr 500 ------- 0 1.0 3.1 18 72
r 1.092 2 3 cbr 500 ------- 0 1.0 3.1 2 44
r 1.092 1 2 cbr 500 ------- 0 1.0 3.1 8 54
+ 1.092 2 3 cbr 500 ------- 0 1.0 3.1 8 54
r 1.09264 2 0 ack 40 ------- 0 3.0 0.0 17 59
+ 1.09264 0 2 tcp 1040 ------- 0 0.0 3.0 35 73
+ 1.09264 0 2 tcp 1040 ------- 0 0.0 3.0 36 74
d 1.09264 0 2 tcp 1040 ------- 0 0.0 3.0 36 74
- 1.09456 0 2 tcp 1040 ------- 0 0.0 3.0 24 38
+ 1.095 1 2 cbr 500 ------- 0 1.0 3.1 19 75
- 1.096 1 2 cbr 500 ------- 0 1.0 3.1 12 63
r 1.09664 3 2 ack 40 ------- 0 3.0 0.0 18 67
+ 1.09664 2 0 ack 40 ------- 0 3.0 0.0 18 67
- 1.09664 2 0 ack 40 ------- 0 3.0 0.0 18 67
- 1.09664 2 3 cbr 500 ------- 0 1.0 3.1 4 47
r 1.09792 0 2 tcp 1040 ------- 0 0.0 3.0 22 35
+ 1.09792 2 3 tcp 1040 ------- 0 0.0 3.0 22 35
+ 1.1 1 2 cbr 500 ------- 0 1.0 3.1 20 76
r 1.1 1 2 cbr 500 ------- 0 1.0 3.1 9 57
+ 1.1 2 3 cbr 500 ------- 0 1.0 3.1 9 57
- 1.104 1 2 cbr 500 ------- 0 1.0 3.1 13 64
- 1.10464 2 3 tcp 1040 ------- 0 0.0 3.0 20 32
+ 1.105 1 2 cbr 500 ------- 0 1.0 3.1 21 77
r 1.108 1 2 cbr 500 ------- 0 1.0 3.1 10 58
+ 1.108 2 3 cbr 500 ------- 0 1.0 3.1 10 58
r 1.10864 2 3 tcp 1040 ------- 0 0.0 3.0 19 31
+ 1.10864 3 2 ack 40 ------- 0 3.0 0.0 19 78
- 1.10864 3 2 ack 40 ------- 0 3.0 0.0 19 78
+ 1.11 1 2 cbr 500 ------- 0 1.0 3.1 22 79
- 1.1112 0 2 tcp 1040 ------- 0 0.0 3.0 25 42
- 1.112 1 2 cbr 500 ------- 0 1.0 3.1 14 65
r 1.11456 0 2 tcp 1040 ------- 0 0.0 3.0 23 37
+ 1.11456 2 3 tcp 1040 ------- 0 0.0 3.0 23 37
+ 1.115 1 2 cbr 500 ------- 0 1.0 3.1 23 80
r 1.116 1 2 cbr 500 ------- 0 1.0 3.1 11 60
+ 1.116 2 3 cbr 500 ------- 0 1.0 3.1 11 60
r 1.11664 2 3 cbr 500 ------- 0 1.0 3.1 3 45
r 1.11728 2 0 ack 40 ------- 0 3.0 0.0 18 67
+ 1.11728 0 2 tcp 1040 ------- 0 0.0 3.0 37 81
+ 1.11728 0 2 tcp 1040 ------- 0 0.0 3.0 38 82
+ 1.12 1 2 cbr 500 ------- 0 1.0 3.1 24 83
- 1.12 1 2 cbr 500 ------- 0 1.0 3.1 15 66
- 1.12128 2 3 cbr 500 ------- 0 1.0 3.1 5 48
r 1.124 1 2 cbr 500 ------- 0 1.0 3.1 12 63
+ 1.124 2 3 cbr 500 ------- 0 1.0 3.1 12 63
r 1.12464 2 3 cbr 500 ------- 0 1.0 3.1 4 47
+ 1.125 1 2 cbr 500 ------- 0 1.0 3.1 25 84
- 1.12784 0 2 tcp 1040 ------- 0 0.0 3.0 26 43
- 1.128 1 2 cbr 500 ------- 0 1.0 3.1 16 70
r 1.12928 3 2 ack 40 ------- 0 3.0 0.0 19 78
+ 1.12928 2 0 ack 40 ------- 0 3.0 0.0 19 78
- 1.12928 2 0 ack 40 ------- 0 3.0 0.0 19 78
- 1.12928 2 3 cbr 500 ------- 0 1.0 3.1 6 51
+ 1.13 1 2 cbr 500 ------- 0 1.0 3.1 26 85
r 1.1312 0 2 tcp 1040 ------- 0 0.0 3.0 24 38
+ 1.1312 2 3 tcp 1040 ------- 0 0.0 3.0 24 38
r 1.132 1 2 cbr 500 ------- 0 1.0 3.1 13 64
+ 1.132 2 3 cbr 500 ------- 0 1.0 3.1 13 64
+ 1.135 1 2 cbr 500 ------- 0 1.0 3.1 27 86
- 1.136 1 2 cbr 500 ------- 0 1.0 3.1 17 71
- 1.13728 2 3 tcp 1040 ------- 0 0.0 3.0 21 34
+ 1.14 1 2 cbr 500 ------- 0 1.0 3.1 28 87
r 1.14 1 2 cbr 500 ------- 0 1.0 3.1 14 65
+ 1.14 2 3 cbr 500 ------- 0 1.0 3.1 14 65
r 1.14128 2 3 tcp 1040 ------- 0 0.0 3.0 20 32
+ 1.14128 3 2 ack 40 ------- 0 3.0 0.0 20 88
- 1.14128 3 2 ack 40 ------- 0 3.0 0.0 20 88
- 1.144 1 2 cbr 500 ------- 0 1.0 3.1 18 72
- 1.14448 0 2 tcp 1040 ------- 0 0.0 3.0 27 49
+ 1.145 1 2 cbr 500 ------- 0 1.0 3.1 29 89
r 1.14784 0 2 tcp 1040 ------- 0 0.0 3.0 25 42
+ 1.14784 2 3 tcp 1040 ------- 0 0.0 3.0 25 42
r 1.148 1 2 cbr 500 ------- 0 1.0 3.1 15 66
+ 1.148 2 3 cbr 500 ------- 0 1.0 3.1 15 66
r 1.14928 2 3 cbr 500 ------- 0 1.0 3.1 5 48
r 1.14992 2 0 ack 40 ------- 0 3.0 0.0 19 78
+ 1.14992 0 2 tcp 1040 ------- 0 0.0 3.0 39 90
+ 1.15 1 2 cbr 500 ------- 0 1.0 3.1 30 91
- 1.152 1 2 cbr 500 ------- 0 1.0 3.1 19 75
- 1.15392 2 3 cbr 500 ------- 0 1.0 3.1 7 53
+ 1.155 1 2 cbr 500 ------- 0 1.0 3.1 31 92
r 1.156 1 2 cbr 500 ------- 0 1.0 3.1 16 70
+ 1.156 2 3 cbr 500 ------- 0 1.0 3.1 16 70
r 1.15728 2 3 cbr 500 ------- 0 1.0 3.1 6 51
+ 1.16 1 2 cbr 500 ------- 0 1.0 3.1 32 93
- 1.16 1 2 cbr 500 ------- 0 1.0 3.1 20 76
- 1.16112 0 2 tcp 1040 ------- 0 0.0 3.0 28 50
r 1.16192 3 2 ack 40 ------- 0 3.0 0.0 20 88
+ 1.16192 2 0 ack 40 ------- 0 3.0 0.0 20 88
- 1.16192 2 0 ack 40 ------- 0 3.0 0.0 20 88
- 1.16192 2 3 cbr 500 ------- 0 1.0 3.1 8 54
r 1.164 1 2 cbr 500 ------- 0 1.0 3.1 17 71
+ 1.164 2 3 cbr 500 ------- 0 1.0 3.1 17 71
r 1.16448 0 2 tcp 1040 ------- 0 0.0 3.0 26 43
+ 1.16448 2 3 tcp 1040 ------- 0 0.0 3.0 26 43
+ 1.165 1 2 cbr 500 ------- 0 1.0 3.1 33 94
- 1.168 1 2 cbr 500 ------- 0 1.0 3.1 21 77
- 1.16992 2 3 tcp 1040 ------- 0 0.0 3.0 22 35
+ 1.17 1 2 cbr 500 ------- 0 1.0 3.1 34 95
r 1.172 1 2 cbr 500 ------- 0 1.0 3.1 18 72
+ 1.172 2 3 cbr 500 ------- 0 1.0 3.1 18 72
r 1.17392 2 3 tcp 1040 ------- 0 0.0 3.0 21 34
+ 1.17392 3 2 ack 40 ------- 0 3.0 0.0 21 96
- 1.17392 3 2 ack 40 ------- 0 3.0 0.0 21 96
+ 1.175 1 2 cbr 500 ------- 0 1.0 3.1 35 97
- 1.176 1 2 cbr 500 ------- 0 1.0 3.1 22 79
- 1.17776 0 2 tcp 1040 ------- 0 0.0 3.0 29 55
+ 1.18 1 2 cbr 500 ------- 0 1.0 3.1 36 98
r 1.18 1 2 cbr 500 ------- 0 1.0 3.1 19 75
+ 1.18 2 3 cbr 500 ------- 0 1.0 3.1 19 75
r 1.18112 0 2 tcp 1040 ------- 0 0.0 3.0 27 49
+ 1.18112 2 3 tcp 1040 ------- 0 0.0 3.0 27 49
r 1.18192 2 3 cbr 500 ------- 0 1.0 3.1 7 53
r 1.18256 2 0 ack 40 ------- 0 3.0 0.0 20 88
+ 1.18256 0 2 tcp 1040 ------- 0 0.0 3.0 40 99
- 1.184 1 2 cbr 500 ------- 0 1.0 3.1 23 80
+ 1.185 1 2 cbr 500 ------- 0 1.0 3.1 37 100
- 1.18656 2 3 cbr 500 ------- 0 1.0 3.1 9 57
r 1.188 1 2 cbr 500 ------- 0 1.0 3.1 20 76
+ 1.188 2 3 cbr 500 ------- 0 1.0 3.1 20 76
r 1.18992 2 3 cbr 500 ------- 0 1.0 3.1 8 54
+ 1.19 1 2 cbr 500 ------- 0 1.0 3.1 38 101
- 1.192 1 2 cbr 500 ------- 0 1.0 3.1 24 83
- 1.1944 0 2 tcp 1040 ------- 0 0.0 3.0 31 61
r 1.19456 3 2 ack 40 ------- 0 3.0 0.0 21 96
+ 1.19456 2 0 ack 40 ------- 0 3.0 0.0 21 96
- 1.19456 2 0 ack 40 ------- 0 3.0 0.0 21 96
- 1.19456 2 3 cbr 500 ------- 0 1.0 3.1 10 58
+ 1.195 1 2 cbr 500 ------- 0 1.0 3.1 39 102
r 1.196 1 2 cbr 500 ------- 0 1.0 3.1 21 77
+ 1.196 2 3 cbr 500 ------- 0 1.0 3.1 21 77
r 1.19776 0 2 tcp 1040 ------- 0 0.0 3.0 28 50
+ 1.19776 2 3 tcp 1040 ------- 0 0.0 3.0 28 50
+ 1.2 1 2 cbr 500 ------- 0 1.0 3.1 40 103
- 1.2 1 2 cbr 500 ------- 0 1.0 3.1 25 84
- 1.20256 2 3 tcp 1040 ------- 0 0.0 3.0 23 37
r 1.204 1 2 cbr 500 ------- 0 1.0 3.1 22 79
+ 1.204 2 3 cbr 500 ------- 0 1.0 3.1 22 79
+ 1.205 1 2 cbr 500 ------- 0 1.0 3.1 41 104
r 1.20656 2 3 tcp 1040 ------- 0 0.0 3.0 22 35
+ 1.20656 3 2 ack 40 ------- 0 3.0 0.0 22 105
- 1.20656 3 2 ack 40 ------- 0 3.0 0.0 22 105
- 1.208 1 2 cbr 500 ------- 0 1.0 3.1 26 85
+ 1.21 1 2 cbr 500 ------- 0 1.0 3.1 42 106
- 1.21104 0 2 tcp 1040 ------- 0 0.0 3.0 33 68
r 1.212 1 2 cbr 500 ------- 0 1.0 3.1 23 80
+ 1.212 2 3 cbr 500 ------- 0 1.0 3.1 23 80
r 1.2144 0 2 tcp 1040 ------- 0 0.0 3.0 29 55
+ 1.2144 2 3 tcp 1040 ------- 0 0.0 3.0 29 55
r 1.21456 2 3 cbr 500 ------- 0 1.0 3.1 9 57
+ 1.215 1 2 cbr 500 ------- 0 1.0 3.1 43 107
r 1.2152 2 0 ack 40 ------- 0 3.0 0.0 21 96
+ 1.2152 0 2 tcp 1040 ------- 0 0.0 3.0 41 108
- 1.216 1 2 cbr 500 ------- 0 1.0 3.1 27 86
- 1.2192 2 3 cbr 500 ------- 0 1.0 3.1 11 60
+ 1.22 1 2 cbr 500 ------- 0 1.0 3.1 44 109
r 1.22 1 2 cbr 500 ------- 0 1.0 3.1 24 83
+ 1.22 2 3 cbr 500 ------- 0 1.0 3.1 24 83
r 1.22256 2 3 cbr 500 ------- 0 1.0 3.1 10 58
- 1.224 1 2 cbr 500 ------- 0 1.0 3.1 28 87
+ 1.225 1 2 cbr 500 ------- 0 1.0 3.1 45 110
r 1.2272 3 2 ack 40 ------- 0 3.0 0.0 22 105
+ 1.2272 2 0 ack 40 ------- 0 3.0 0.0 22 105
- 1.2272 2 0 ack 40 ------- 0 3.0 0.0 22 105
- 1.2272 2 3 cbr 500 ------- 0 1.0 3.1 12 63
- 1.22768 0 2 tcp 1040 ------- 0 0.0 3.0 35 73
r 1.228 1 2 cbr 500 ------- 0 1.0 3.1 25 84
+ 1.228 2 3 cbr 500 ------- 0 1.0 3.1 25 84
+ 1.23 1 2 cbr 500 ------- 0 1.0 3.1 46 111
r 1.23104 0 2 tcp 1040 ------- 0 0.0 3.0 31 61
+ 1.23104 2 3 tcp 1040 ------- 0 0.0 3.0 31 61
- 1.232 1 2 cbr 500 ------- 0 1.0 3.1 29 89
+ 1.235 1 2 cbr 500 ------- 0 1.0 3.1 47 112
- 1.2352 2 3 tcp 1040 ------- 0 0.0 3.0 24 38
r 1.236 1 2 cbr 500 ------- 0 1.0 3.1 26 85
+ 1.236 2 3 cbr 500 ------- 0 1.0 3.1 26 85
r 1.2392 2 3 tcp 1040 ------- 0 0.0 3.0 23 37
+ 1.2392 3 2 ack 40 ------- 0 3.0 0.0 23 113
- 1.2392 3 2 ack 40 ------- 0 3.0 0.0 23 113
+ 1.24 1 2 cbr 500 ------- 0 1.0 3.1 48 114
- 1.24 1 2 cbr 500 ------- 0 1.0 3.1 30 91
r 1.244 1 2 cbr 500 ------- 0 1.0 3.1 27 86
+ 1.244 2 3 cbr 500 ------- 0 1.0 3.1 27 86
- 1.24432 0 2 tcp 1040 ------- 0 0.0 3.0 37 81
+ 1.245 1 2 cbr 500 ------- 0 1.0 3.1 49 115
r 1.2472 2 3 cbr 500 ------- 0 1.0 3.1 11 60
r 1.24768 0 2 tcp 1040 ------- 0 0.0 3.0 33 68
+ 1.24768 2 3 tcp 1040 ------- 0 0.0 3.0 33 68
r 1.24784 2 0 ack 40 ------- 0 3.0 0.0 22 105
+ 1.24784 0 2 tcp 1040 ------- 0 0.0 3.0 42 116
- 1.248 1 2 cbr 500 ------- 0 1.0 3.1 31 92
+ 1.25 1 2 cbr 500 ------- 0 1.0 3.1 50 117
- 1.25184 2 3 cbr 500 ------- 0 1.0 3.1 13 64
r 1.252 1 2 cbr 500 ------- 0 1.0 3.1 28 87
+ 1.252 2 3 cbr 500 ------- 0 1.0 3.1 28 87
+ 1.255 1 2 cbr 500 ------- 0 1.0 3.1 51 118
r 1.2552 2 3 cbr 500 ------- 0 1.0 3.1 12 63
- 1.256 1 2 cbr 500 ------- 0 1.0 3.1 32 93
r 1.25984 3 2 ack 40 ------- 0 3.0 0.0 23 113
+ 1.25984 2 0 ack 40 ------- 0 3.0 0.0 23 113
- 1.25984 2 0 ack 40 ------- 0 3.0 0.0 23 113
- 1.25984 2 3 cbr 500 ------- 0 1.0 3.1 14 65
+ 1.26 1 2 cbr 500 ------- 0 1.0 3.1 52 119
r 1.26 1 2 cbr 500 ------- 0 1.0 3.1 29 89
+ 1.26 2 3 cbr 500 ------- 0 1.0 3.1 29 89
- 1.26096 0 2 tcp 1040 ------- 0 0.0 3.0 38 82
- 1.264 1 2 cbr 500 ------- 0 1.0 3.1 33 94
r 1.26432 0 2 tcp 1040 ------- 0 0.0 3.0 35 73
+ 1.26432 2 3 tcp 1040 ------- 0 0.0 3.0 35 73
+ 1.265 1 2 cbr 500 ------- 0 1.0 3.1 53 120
- 1.26784 2 3 tcp 1040 ------- 0 0.0 3.0 25 42
r 1.268 1 2 cbr 500 ------- 0 1.0 3.1 30 91
+ 1.268 2 3 cbr 500 ------- 0 1.0 3.1 30 91
+ 1.27 1 2 cbr 500 ------- 0 1.0 3.1 54 121
r 1.27184 2 3 tcp 1040 ------- 0 0.0 3.0 24 38
+ 1.27184 3 2 ack 40 ------- 0 3.0 0.0 24 122
- 1.27184 3 2 ack 40 ------- 0 3.0 0.0 24 122
- 1.272 1 2 cbr 500 ------- 0 1.0 3.1 34 95
+ 1.275 1 2 cbr 500 ------- 0 1.0 3.1 55 123
r 1.276 1 2 cbr 500 ------- 0 1.0 3.1 31 92
+ 1.276 2 3 cbr 500 ------- 0 1.0 3.1 31 92
- 1.2776 0 2 tcp 1040 ------- 0 0.0 3.0 39 90
r 1.27984 2 3 cbr 500 ------- 0 1.0 3.1 13 64
+ 1.28 1 2 cbr 500 ------- 0 1.0 3.1 56 124
- 1.28 1 2 cbr 500 ------- 0 1.0 3.1 35 97
r 1.28048 2 0 ack 40 ------- 0 3.0 0.0 23 113
+ 1.28048 0 2 tcp 1040 ------- 0 0.0 3.0 43 125
r 1.28096 0 2 tcp 1040 ------- 0 0.0 3.0 37 81
+ 1.28096 2 3 tcp 1040 ------- 0 0.0 3.0 37 81
r 1.284 1 2 cbr 500 ------- 0 1.0 3.1 32 93
+ 1.284 2 3 cbr 500 ------- 0 1.0 3.1 32 93
- 1.28448 2 3 cbr 500 ------- 0 1.0 3.1 15 66
+ 1.285 1 2 cbr 500 ------- 0 1.0 3.1 57 126
r 1.28784 2 3 cbr 500 ------- 0 1.0 3.1 14 65
- 1.288 1 2 cbr 500 ------- 0 1.0 3.1 36 98
+ 1.29 1 2 cbr 500 ------- 0 1.0 3.1 58 127
r 1.292 1 2 cbr 500 ------- 0 1.0 3.1 33 94
+ 1.292 2 3 cbr 500 ------- 0 1.0 3.1 33 94
r 1.29248 3 2 ack 40 ------- 0 3.0 0.0 24 122
+ 1.29248 2 0 ack 40 ------- 0 3.0 0.0 24 122
- 1.29248 2 0 ack 40 ------- 0 3.0 0.0 24 122
- 1.29248 2 3 cbr 500 ------- 0 1.0 3.1 16 70
- 1.29424 0 2 tcp 1040 ------- 0 0.0 3.0 40 99
+ 1.295 1 2 cbr 500 ------- 0 1.0 3.1 59 128
- 1.296 1 2 cbr 500 ------- 0 1.0 3.1 37 100
r 1.2976 0 2 tcp 1040 ------- 0 0.0 3.0 38 82
+ 1.2976 2 3 tcp 1040 ------- 0 0.0 3.0 38 82
+ 1.3 1 2 cbr 500 ------- 0 1.0 3.1 60 129
r 1.3 1 2 cbr 500 ------- 0 1.0 3.1 34 95
+ 1.3 2 3 cbr 500 ------- 0 1.0 3.1 34 95
- 1.30048 2 3 cbr 500 ------- 0 1.0 3.1 17 71
- 1.304 1 2 cbr 500 ------- 0 1.0 3.1 38 101
r 1.30448 2 3 tcp 1040 ------- 0 0.0 3.0 25 42
+ 1.30448 3 2 ack 40 ------- 0 3.0 0.0 25 130
- 1.30448 3 2 ack 40 ------- 0 3.0 0.0 25 130
+ 1.305 1 2 cbr 500 ------- 0 1.0 3.1 61 131
r 1.308 1 2 cbr 500 ------- 0 1.0 3.1 35 97
+ 1.308 2 3 cbr 500 ------- 0 1.0 3.1 35 97
- 1.30848 2 3 tcp 1040 ------- 0 0.0 3.0 26 43
+ 1.31 1 2 cbr 500 ------- 0 1.0 3.1 62 132
- 1.31088 0 2 tcp 1040 ------- 0 0.0 3.0 41 108
- 1.312 1 2 cbr 500 ------- 0 1.0 3.1 39 102
r 1.31248 2 3 cbr 500 ------- 0 1.0 3.1 15 66
r 1.31312 2 0 ack 40 ------- 0 3.0 0.0 24 122
+ 1.31312 0 2 tcp 1040 ------- 0 0.0 3.0 44 133
r 1.31424 0 2 tcp 1040 ------- 0 0.0 3.0 39 90
+ 1.31424 2 3 tcp 1040 ------- 0 0.0 3.0 39 90
+ 1.315 1 2 cbr 500 ------- 0 1.0 3.1 63 134
r 1.316 1 2 cbr 500 ------- 0 1.0 3.1 36 98
+ 1.316 2 3 cbr 500 ------- 0 1.0 3.1 36 98
+ 1.32 1 2 cbr 500 ------- 0 1.0 3.1 64 135
- 1.32 1 2 cbr 500 ------- 0 1.0 3.1 40 103
r 1.32048 2 3 cbr 500 ------- 0 1.0 3.1 16 70
r 1.324 1 2 cbr 500 ------- 0 1.0 3.1 37 100
+ 1.324 2 3 cbr 500 ------- 0 1.0 3.1 37 100
+ 1.325 1 2 cbr 500 ------- 0 1.0 3.1 65 136
r 1.32512 3 2 ack 40 ------- 0 3.0 0.0 25 130
+ 1.32512 2 0 ack 40 ------- 0 3.0 0.0 25 130
- 1.32512 2 0 ack 40 ------- 0 3.0 0.0 25 130
- 1.32512 2 3 cbr 500 ------- 0 1.0 3.1 18 72
- 1.32752 0 2 tcp 1040 ------- 0 0.0 3.0 42 116
- 1.328 1 2 cbr 500 ------- 0 1.0 3.1 41 104
r 1.32848 2 3 cbr 500 ------- 0 1.0 3.1 17 71
+ 1.33 1 2 cbr 500 ------- 0 1.0 3.1 66 137
r 1.33088 0 2 tcp 1040 ------- 0 0.0 3.0 40 99
+ 1.33088 2 3 tcp 1040 ------- 0 0.0 3.0 40 99
r 1.332 1 2 cbr 500 ------- 0 1.0 3.1 38 101
+ 1.332 2 3 cbr 500 ------- 0 1.0 3.1 38 101
- 1.33312 2 3 cbr 500 ------- 0 1.0 3.1 19 75
+ 1.335 1 2 cbr 500 ------- 0 1.0 3.1 67 138
- 1.336 1 2 cbr 500 ------- 0 1.0 3.1 42 106
+ 1.34 1 2 cbr 500 ------- 0 1.0 3.1 68 139
r 1.34 1 2 cbr 500 ------- 0 1.0 3.1 39 102
+ 1.34 2 3 cbr 500 ------- 0 1.0 3.1 39 102
- 1.34112 2 3 tcp 1040 ------- 0 0.0 3.0 27 49
- 1.344 1 2 cbr 500 ------- 0 1.0 3.1 43 107
- 1.34416 0 2 tcp 1040 ------- 0 0.0 3.0 43 125
+ 1.345 1 2 cbr 500 ------- 0 1.0 3.1 69 140
r 1.34512 2 3 tcp 1040 ------- 0 0.0 3.0 26 43
+ 1.34512 3 2 ack 40 ------- 0 3.0 0.0 26 141
- 1.34512 3 2 ack 40 ------- 0 3.0 0.0 26 141
r 1.34576 2 0 ack 40 ------- 0 3.0 0.0 25 130
+ 1.34576 0 2 tcp 1040 ------- 0 0.0 3.0 45 142
r 1.34752 0 2 tcp 1040 ------- 0 0.0 3.0 41 108
+ 1.34752 2 3 tcp 1040 ------- 0 0.0 3.0 41 108
r 1.348 1 2 cbr 500 ------- 0 1.0 3.1 40 103
+ 1.348 2 3 cbr 500 ------- 0 1.0 3.1 40 103
+ 1.35 1 2 cbr 500 ------- 0 1.0 3.1 70 143
- 1.352 1 2 cbr 500 ------- 0 1.0 3.1 44 109
r 1.35312 2 3 cbr 500 ------- 0 1.0 3.1 18 72
+ 1.355 1 2 cbr 500 ------- 0 1.0 3.1 71 144
r 1.356 1 2 cbr 500 ------- 0 1.0 3.1 41 104
+ 1.356 2 3 cbr 500 ------- 0 1.0 3.1 41 104
- 1.35776 2 3 cbr 500 ------- 0 1.0 3.1 20 76
+ 1.36 1 2 cbr 500 ------- 0 1.0 3.1 72 145
- 1.36 1 2 cbr 500 ------- 0 1.0 3.1 45 110
- 1.3608 0 2 tcp 1040 ------- 0 0.0 3.0 44 133
r 1.36112 2 3 cbr 500 ------- 0 1.0 3.1 19 75
r 1.364 1 2 cbr 500 ------- 0 1.0 3.1 42 106
+ 1.364 2 3 cbr 500 ------- 0 1.0 3.1 42 106
r 1.36416 0 2 tcp 1040 ------- 0 0.0 3.0 42 116
+ 1.36416 2 3 tcp 1040 ------- 0 0.0 3.0 42 116
+ 1.365 1 2 cbr 500 ------- 0 1.0 3.1 73 146
r 1.36576 3 2 ack 40 ------- 0 3.0 0.0 26 141
+ 1.36576 2 0 ack 40 ------- 0 3.0 0.0 26 141
- 1.36576 2 0 ack 40 ------- 0 3.0 0.0 26 141
- 1.36576 2 3 cbr 500 ------- 0 1.0 3.1 21 77
- 1.368 1 2 cbr 500 ------- 0 1.0 3.1 46 111
+ 1.37 1 2 cbr 500 ------- 0 1.0 3.1 74 147
r 1.372 1 2 cbr 500 ------- 0 1.0 3.1 43 107
+ 1.372 2 3 cbr 500 ------- 0 1.0 3.1 43 107
- 1.37376 2 3 tcp 1040 ------- 0 0.0 3.0 28 50
+ 1.375 1 2 cbr 500 ------- 0 1.0 3.1 75 148
- 1.376 1 2 cbr 500 ------- 0 1.0 3.1 47 112
- 1.37744 0 2 tcp 1040 ------- 0 0.0 3.0 45 142
r 1.37776 2 3 tcp 1040 ------- 0 0.0 3.0 27 49
+ 1.37776 3 2 ack 40 ------- 0 3.0 0.0 27 149
- 1.37776 3 2 ack 40 ------- 0 3.0 0.0 27 149
+ 1.38 1 2 cbr 500 ------- 0 1.0 3.1 76 150
r 1.38 1 2 cbr 500 ------- 0 1.0 3.1 44 109
+ 1.38 2 3 cbr 500 ------- 0 1.0 3.1 44 109
r 1.3808 0 2 tcp 1040 ------- 0 0.0 3.0 43 125
+ 1.3808 2 3 tcp 1040 ------- 0 0.0 3.0 43 125
- 1.384 1 2 cbr 500 ------- 0 1.0 3.1 48 114
+ 1.385 1 2 cbr 500 ------- 0 1.0 3.1 77 151
r 1.38576 2 3 cbr 500 ------- 0 1.0 3.1 20 76
r 1.3864 2 0 ack 40 ------- 0 3.0 0.0 26 141
+ 1.3864 0 2 tcp 1040 ------- 0 0.0 3.0 46 152
r 1.388 1 2 cbr 500 ------- 0 1.0 3.1 45 110
+ 1.388 2 3 cbr 500 ------- 0 1.0 3.1 45 110
+ 1.39 1 2 cbr 500 ------- 0 1.0 3.1 78 153
- 1.3904 2 3 cbr 500 ------- 0 1.0 3.1 22 79
- 1.392 1 2 cbr 500 ------- 0 1.0 3.1 49 115
r 1.39376 2 3 cbr 500 ------- 0 1.0 3.1 21 77
- 1.39408 0 2 tcp 1040 ------- 0 0.0 3.0 46 152
+ 1.395 1 2 cbr 500 ------- 0 1.0 3.1 79 154
r 1.396 1 2 cbr 500 ------- 0 1.0 3.1 46 111
+ 1.396 2 3 cbr 500 ------- 0 1.0 3.1 46 111
r 1.39744 0 2 tcp 1040 ------- 0 0.0 3.0 44 133
+ 1.39744 2 3 tcp 1040 ------- 0 0.0 3.0 44 133
r 1.3984 3 2 ack 40 ------- 0 3.0 0.0 27 149