V -t * -v 1.0a5 -a 0
A -t * -n 1 -p 0 -o 0x7fffffff -c 30 -a 1
A -t * -h 1 -m 1073741823 -s 0
c -t * -i 1 -n red
c -t * -i 2 -n blue
n -t * -a 4 -s 4 -S UP -v circle -c blue -i blue
n -t * -a 0 -s 0 -S UP -v circle -c blue -i blue
n -t * -a 5 -s 5 -S UP -v circle -c black -i black
n -t * -a 1 -s 1 -S UP -v box -c red -i red
n -t * -a 6 -s 6 -S UP -v box -c red -i red
n -t * -a 2 -s 2 -S UP -v circle -c black -i black
n -t * -a 3 -s 3 -S UP -v circle -c black -i black
l -t * -s 0 -d 2 -S UP -r 1000000 -D 0.01 -c black -o right-down
l -t * -s 1 -d 2 -S UP -r 1000000 -D 0.01 -c black -o right-up
l -t * -s 2 -d 3 -S UP -r 300000 -D 0.10000000000000001 -c black -o right
X -t * -n 7 -r 0.5Mb -D 40ms -o left
L -t * -s 7 -d 3 -o up
L -t * -s 7 -d 4 -o down
L -t * -s 7 -d 5 -o up
L -t * -s 7 -d 6 -o down
n -t 0 -s 0 -S DLABEL -l "TCP_Traffic" -L ""
n -t 0 -s 1 -S DLABEL -l "UDP_Traffic" -L ""
+ -t 0.3 -s 1 -d 2 -p cbr -e 1000 -c 1 -i 0 -a 1 -x {1.0 6.0 0 ------- null}
- -t 0.3 -s 1 -d 2 -p cbr -e 1000 -c 1 -i 0 -a 1 -x {1.0 6.0 0 ------- null}
h -t 0.3 -s 1 -d 2 -p cbr -e 1000 -c 1 -i 0 -a 1 -x {1.0 6.0 -1 ------- null}
r -t 0.318 -s 1 -d 2 -p cbr -e 1000 -c 1 -i 0 -a 1 -x {1.0 6.0 0 ------- null}
+ -t 0.318 -s 2 -d 3 -p cbr -e 1000 -c 1 -i 0 -a 1 -x {1.0 6.0 0 ------- null}
- -t 0.318 -s 2 -d 3 -p cbr -e 1000 -c 1 -i 0 -a 1 -x {1.0 6.0 0 ------- null}
h -t 0.318 -s 2 -d 3 -p cbr -e 1000 -c 1 -i 0 -a 1 -x {1.0 6.0 -1 ------- null}
r -t 0.444666666666667 -s 2 -d 3 -p cbr -e 1000 -c 1 -i 0 -a 1 -x {1.0 6.0 0 ------- null}
h -t 0.444666666666667 -s 3 -d 7 -p cbr -e 1000 -c 1 -i 0 -a 1 -x {1.0 6.0 0 ------- null}
+ -t 0.46 -s 1 -d 2 -p cbr -e 1000 -c 1 -i 1 -a 1 -x {1.0 6.0 1 ------- null}
- -t 0.46 -s 1 -d 2 -p cbr -e 1000 -c 1 -i 1 -a 1 -x {1.0 6.0 1 ------- null}
h -t 0.46 -s 1 -d 2 -p cbr -e 1000 -c 1 -i 1 -a 1 -x {1.0 6.0 -1 ------- null}
r -t 0.478 -s 1 -d 2 -p cbr -e 1000 -c 1 -i 1 -a 1 -x {1.0 6.0 1 ------- null}
+ -t 0.478 -s 2 -d 3 -p cbr -e 1000 -c 1 -i 1 -a 1 -x {1.0 6.0 1 ------- null}
- -t 0.478 -s 2 -d 3 -p cbr -e 1000 -c 1 -i 1 -a 1 -x {1.0 6.0 1 ------- null}
h -t 0.478 -s 2 -d 3 -p cbr -e 1000 -c 1 -i 1 -a 1 -x {1.0 6.0 -1 ------- null}
+ -t 0.484666666666667 -s 3 -d 7 -p cbr -e 1000 -c 1 -i 0 -a 1 -x {1.0 6.0 0 ------- null}
- -t 0.484666666666667 -s 3 -d 7 -p cbr -e 1000 -c 1 -i 0 -a 1 -x {1.0 6.0 0 ------- null}
h -t 0.484666666666667 -s 3 -d 7 -p cbr -e 1000 -c 1 -i 0 -a 1 -x {1.0 6.0 -1 ------- null}
d -t 0.484670666666667 -s 5 -d 7 -p cbr -e 1000 -c 1 -i 0 -a 1 -x {1.0 6.0 0 ------- null}
d -t 0.484670666666667 -s 4 -d 7 -p cbr -e 1000 -c 1 -i 0 -a 1 -x {1.0 6.0 0 ------- null}
r -t 0.524670666666667 -s 7 -d 6 -p cbr -e 1000 -c 1 -i 0 -a 1 -x {1.0 6.0 0 ------- null}
r -t 0.604666666666667 -s 2 -d 3 -p cbr -e 1000 -c 1 -i 1 -a 1 -x {1.0 6.0 1 ------- null}
h -t 0.604666666666667 -s 3 -d 7 -p cbr -e 1000 -c 1 -i 1 -a 1 -x {1.0 6.0 1 ------- null}
+ -t 0.62 -s 1 -d 2 -p cbr -e 1000 -c 1 -i 2 -a 1 -x {1.0 6.0 2 ------- null}
- -t 0.62 -s 1 -d 2 -p cbr -e 1000 -c 1 -i 2 -a 1 -x {1.0 6.0 2 ------- null}
h -t 0.62 -s 1 -d 2 -p cbr -e 1000 -c 1 -i 2 -a 1 -x {1.0 6.0 -1 ------- null}
r -t 0.638 -s 1 -d 2 -p cbr -e 1000 -c 1 -i 2 -a 1 -x {1.0 6.0 2 ------- null}
+ -t 0.638 -s 2 -d 3 -p cbr -e 1000 -c 1 -i 2 -a 1 -x {1.0 6.0 2 ------- null}
- -t 0.638 -s 2 -d 3 -p cbr -e 1000 -c 1 -i 2 -a 1 -x {1.0 6.0 2 ------- null}
h -t 0.638 -s 2 -d 3 -p cbr -e 1000 -c 1 -i 2 -a 1 -x {1.0 6.0 -1 ------- null}
+ -t 0.644666666666667 -s 3 -d 7 -p cbr -e 1000 -c 1 -i 1 -a 1 -x {1.0 6.0 1 ------- null}
- -t 0.644666666666667 -s 3 -d 7 -p cbr -e 1000 -c 1 -i 1 -a 1 -x {1.0 6.0 1 ------- null}
h -t 0.644666666666667 -s 3 -d 7 -p cbr -e 1000 -c 1 -i 1 -a 1 -x {1.0 6.0 -1 ------- null}
d -t 0.644670666666667 -s 5 -d 7 -p cbr -e 1000 -c 1 -i 1 -a 1 -x {1.0 6.0 1 ------- null}
d -t 0.644670666666667 -s 4 -d 7 -p cbr -e 1000 -c 1 -i 1 -a 1 -x {1.0 6.0 1 ------- null}
r -t 0.684670666666667 -s 7 -d 6 -p cbr -e 1000 -c 1 -i 1 -a 1 -x {1.0 6.0 1 ------- null}
r -t 0.764666666666667 -s 2 -d 3 -p cbr -e 1000 -c 1 -i 2 -a 1 -x {1.0 6.0 2 ------- null}
h -t 0.764666666666667 -s 3 -d 7 -p cbr -e 1000 -c 1 -i 2 -a 1 -x {1.0 6.0 2 ------- null}
+ -t 0.78 -s 1 -d 2 -p cbr -e 1000 -c 1 -i 3 -a 1 -x {1.0 6.0 3 ------- null}
- -t 0.78 -s 1 -d 2 -p cbr -e 1000 -c 1 -i 3 -a 1 -x {1.0 6.0 3 ------- null}
h -t 0.78 -s 1 -d 2 -p cbr -e 1000 -c 1 -i 3 -a 1 -x {1.0 6.0 -1 ------- null}
r -t 0.798 -s 1 -d 2 -p cbr -e 1000 -c 1 -i 3 -a 1 -x {1.0 6.0 3 ------- null}
+ -t 0.798 -s 2 -d 3 -p cbr -e 1000 -c 1 -i 3 -a 1 -x {1.0 6.0 3 ------- null}
- -t 0.798 -s 2 -d 3 -p cbr -e 1000 -c 1 -i 3 -a 1 -x {1.0 6.0 3 ------- null}
h -t 0.798 -s 2 -d 3 -p cbr -e 1000 -c 1 -i 3 -a 1 -x {1.0 6.0 -1 ------- null}
+ -t 0.8 -s 0 -d 2 -p tcp -e 40 -c 2 -i 4 -a 2 -x {0.0 4.0 0 ------- null}
- -t 0.8 -s 0 -d 2 -p tcp -e 40 -c 2 -i 4 -a 2 -x {0.0 4.0 0 ------- null}
h -t 0.8 -s 0 -d 2 -p tcp -e 40 -c 2 -i 4 -a 2 -x {0.0 4.0 -1 ------- null}
+ -t 0.804666666666667 -s 3 -d 7 -p cbr -e 1000 -c 1 -i 2 -a 1 -x {1.0 6.0 2 ------- null}
- -t 0.804666666666667 -s 3 -d 7 -p cbr -e 1000 -c 1 -i 2 -a 1 -x {1.0 6.0 2 ------- null}
h -t 0.804666666666667 -s 3 -d 7 -p cbr -e 1000 -c 1 -i 2 -a 1 -x {1.0 6.0 -1 ------- null}
d -t 0.804670666666667 -s 5 -d 7 -p cbr -e 1000 -c 1 -i 2 -a 1 -x {1.0 6.0 2 ------- null}
d -t 0.804670666666667 -s 4 -d 7 -p cbr -e 1000 -c 1 -i 2 -a 1 -x {1.0 6.0 2 ------- null}
r -t 0.81032 -s 0 -d 2 -p tcp -e 40 -c 2 -i 4 -a 2 -x {0.0 4.0 0 ------- null}
+ -t 0.81032 -s 2 -d 3 -p tcp -e 40 -c 2 -i 4 -a 2 -x {0.0 4.0 0 ------- null}
- -t 0.824666666666667 -s 2 -d 3 -p tcp -e 40 -c 2 -i 4 -a 2 -x {0.0 4.0 0 ------- null}
h -t 0.824666666666667 -s 2 -d 3 -p tcp -e 40 -c 2 -i 4 -a 2 -x {0.0 4.0 -1 ------- null}
r -t 0.844670666666667 -s 7 -d 6 -p cbr -e 1000 -c 1 -i 2 -a 1 -x {1.0 6.0 2 ------- null}
r -t 0.924666666666667 -s 2 -d 3 -p cbr -e 1000 -c 1 -i 3 -a 1 -x {1.0 6.0 3 ------- null}
h -t 0.924666666666667 -s 3 -d 7 -p cbr -e 1000 -c 1 -i 3 -a 1 -x {1.0 6.0 3 ------- null}
r -t 0.925733333333333 -s 2 -d 3 -p tcp -e 40 -c 2 -i 4 -a 2 -x {0.0 4.0 0 ------- null}
h -t 0.925733333333333 -s 3 -d 7 -p tcp -e 40 -c 2 -i 4 -a 2 -x {0.0 4.0 0 ------- null}
+ -t 0.94 -s 1 -d 2 -p cbr -e 1000 -c 1 -i 5 -a 1 -x {1.0 6.0 4 ------- null}
- -t 0.94 -s 1 -d 2 -p cbr -e 1000 -c 1 -i 5 -a 1 -x {1.0 6.0 4 ------- null}
h -t 0.94 -s 1 -d 2 -p cbr -e 1000 -c 1 -i 5 -a 1 -x {1.0 6.0 -1 ------- null}
r -t 0.958 -s 1 -d 2 -p cbr -e 1000 -c 1 -i 5 -a 1 -x {1.0 6.0 4 ------- null}
+ -t 0.958 -s 2 -d 3 -p cbr -e 1000 -c 1 -i 5 -a 1 -x {1.0 6.0 4 ------- null}
- -t 0.958 -s 2 -d 3 -p cbr -e 1000 -c 1 -i 5 -a 1 -x {1.0 6.0 4 ------- null}
h -t 0.958 -s 2 -d 3 -p cbr -e 1000 -c 1 -i 5 -a 1 -x {1.0 6.0 -1 ------- null}
+ -t 0.964666666666667 -s 3 -d 7 -p cbr -e 1000 -c 1 -i 3 -a 1 -x {1.0 6.0 3 ------- null}
- -t 0.964666666666667 -s 3 -d 7 -p cbr -e 1000 -c 1 -i 3 -a 1 -x {1.0 6.0 3 ------- null}
h -t 0.964666666666667 -s 3 -d 7 -p cbr -e 1000 -c 1 -i 3 -a 1 -x {1.0 6.0 -1 ------- null}
d -t 0.964670666666667 -s 5 -d 7 -p cbr -e 1000 -c 1 -i 3 -a 1 -x {1.0 6.0 3 ------- null}
d -t 0.964670666666667 -s 4 -d 7 -p cbr -e 1000 -c 1 -i 3 -a 1 -x {1.0 6.0 3 ------- null}
+ -t 0.965733333333333 -s 3 -d 7 -p tcp -e 40 -c 2 -i 4 -a 2 -x {0.0 4.0 0 ------- null}
- -t 0.968922666666667 -s 3 -d 7 -p tcp -e 40 -c 2 -i 4 -a 2 -x {0.0 4.0 0 ------- null}
h -t 0.968922666666667 -s 3 -d 7 -p tcp -e 40 -c 2 -i 4 -a 2 -x {0.0 4.0 -1 ------- null}
d -t 0.968926666666667 -s 6 -d 7 -p tcp -e 40 -c 2 -i 4 -a 2 -x {0.0 4.0 0 ------- null}
d -t 0.968926666666667 -s 5 -d 7 -p tcp -e 40 -c 2 -i 4 -a 2 -x {0.0 4.0 0 ------- null}
r -t 1.00467066666667 -s 7 -d 6 -p cbr -e 1000 -c 1 -i 3 -a 1 -x {1.0 6.0 3 ------- null}
r -t 1.00892666666667 -s 7 -d 4 -p tcp -e 40 -c 2 -i 4 -a 2 -x {0.0 4.0 0 ------- null}
h -t 1.00892666666667 -s 4 -d 7 -p ack -e 40 -c 2 -i 6 -a 2 -x {4.0 0.0 0 ------- null}
+ -t 1.04892666666667 -s 4 -d 7 -p ack -e 40 -c 2 -i 6 -a 2 -x {4.0 0.0 0 ------- null}
- -t 1.04892666666667 -s 4 -d 7 -p ack -e 40 -c 2 -i 6 -a 2 -x {4.0 0.0 0 ------- null}
h -t 1.04892666666667 -s 4 -d 7 -p ack -e 40 -c 2 -i 6 -a 2 -x {4.0 0.0 -1 ------- null}
d -t 1.04893066666667 -s 6 -d 7 -p ack -e 40 -c 2 -i 6 -a 2 -x {4.0 0.0 0 ------- null}
d -t 1.04893066666667 -s 5 -d 7 -p ack -e 40 -c 2 -i 6 -a 2 -x {4.0 0.0 0 ------- null}
r -t 1.08466666666667 -s 2 -d 3 -p cbr -e 1000 -c 1 -i 5 -a 1 -x {1.0 6.0 4 ------- null}
h -t 1.08466666666667 -s 3 -d 7 -p cbr -e 1000 -c 1 -i 5 -a 1 -x {1.0 6.0 4 ------- null}
r -t 1.08893066666667 -s 7 -d 3 -p ack -e 40 -c 2 -i 6 -a 2 -x {4.0 0.0 0 ------- null}
+ -t 1.08893066666667 -s 3 -d 2 -p ack -e 40 -c 2 -i 6 -a 2 -x {4.0 0.0 0 ------- null}
- -t 1.08893066666667 -s 3 -d 2 -p ack -e 40 -c 2 -i 6 -a 2 -x {4.0 0.0 0 ------- null}
h -t 1.08893066666667 -s 3 -d 2 -p ack -e 40 -c 2 -i 6 -a 2 -x {4.0 0.0 -1 ------- null}
+ -t 1.1 -s 1 -d 2 -p cbr -e 1000 -c 1 -i 7 -a 1 -x {1.0 6.0 5 ------- null}
- -t 1.1 -s 1 -d 2 -p cbr -e 1000 -c 1 -i 7 -a 1 -x {1.0 6.0 5 ------- null}
h -t 1.1 -s 1 -d 2 -p cbr -e 1000 -c 1 -i 7 -a 1 -x {1.0 6.0 -1 ------- null}
r -t 1.118 -s 1 -d 2 -p cbr -e 1000 -c 1 -i 7 -a 1 -x {1.0 6.0 5 ------- null}
+ -t 1.118 -s 2 -d 3 -p cbr -e 1000 -c 1 -i 7 -a 1 -x {1.0 6.0 5 ------- null}
- -t 1.118 -s 2 -d 3 -p cbr -e 1000 -c 1 -i 7 -a 1 -x {1.0 6.0 5 ------- null}
h -t 1.118 -s 2 -d 3 -p cbr -e 1000 -c 1 -i 7 -a 1 -x {1.0 6.0 -1 ------- null}
+ -t 1.12466666666667 -s 3 -d 7 -p cbr -e 1000 -c 1 -i 5 -a 1 -x {1.0 6.0 4 ------- null}
- -t 1.12466666666667 -s 3 -d 7 -p cbr -e 1000 -c 1 -i 5 -a 1 -x {1.0 6.0 4 ------- null}
h -t 1.12466666666667 -s 3 -d 7 -p cbr -e 1000 -c 1 -i 5 -a 1 -x {1.0 6.0 -1 ------- null}
d -t 1.12467066666667 -s 5 -d 7 -p cbr -e 1000 -c 1 -i 5 -a 1 -x {1.0 6.0 4 ------- null}
d -t 1.12467066666667 -s 4 -d 7 -p cbr -e 1000 -c 1 -i 5 -a 1 -x {1.0 6.0 4 ------- null}
r -t 1.16467066666667 -s 7 -d 6 -p cbr -e 1000 -c 1 -i 5 -a 1 -x {1.0 6.0 4 ------- null}
r -t 1.18999733333333 -s 3 -d 2 -p ack -e 40 -c 2 -i 6 -a 2 -x {4.0 0.0 0 ------- null}
+ -t 1.18999733333333 -s 2 -d 0 -p ack -e 40 -c 2 -i 6 -a 2 -x {4.0 0.0 0 ------- null}
- -t 1.18999733333333 -s 2 -d 0 -p ack -e 40 -c 2 -i 6 -a 2 -x {4.0 0.0 0 ------- null}
h -t 1.18999733333333 -s 2 -d 0 -p ack -e 40 -c 2 -i 6 -a 2 -x {4.0 0.0 -1 ------- null}
r -t 1.20031733333333 -s 2 -d 0 -p ack -e 40 -c 2 -i 6 -a 2 -x {4.0 0.0 0 ------- null}
+ -t 1.20031733333333 -s 0 -d 2 -p tcp -e 1040 -c 2 -i 8 -a 2 -x {0.0 4.0 1 ------- null}
- -t 1.20031733333333 -s 0 -d 2 -p tcp -e 1040 -c 2 -i 8 -a 2 -x {0.0 4.0 1 ------- null}
h -t 1.20031733333333 -s 0 -d 2 -p tcp -e 1040 -c 2 -i 8 -a 2 -x {0.0 4.0 -1 ------- null}
+ -t 1.20031733333333 -s 0 -d 2 -p tcp -e 1040 -c 2 -i 9 -a 2 -x {0.0 4.0 2 ------- null}
- -t 1.20863733333333 -s 0 -d 2 -p tcp -e 1040 -c 2 -i 9 -a 2 -x {0.0 4.0 2 ------- null}
h -t 1.20863733333333 -s 0 -d 2 -p tcp -e 1040 -c 2 -i 9 -a 2 -x {0.0 4.0 -1 ------- null}
r -t 1.21863733333333 -s 0 -d 2 -p tcp -e 1040 -c 2 -i 8 -a 2 -x {0.0 4.0 1 ------- null}
+ -t 1.21863733333333 -s 2 -d 3 -p tcp -e 1040 -c 2 -i 8 -a 2 -x {0.0 4.0 1 ------- null}
- -t 1.21863733333333 -s 2 -d 3 -p tcp -e 1040 -c 2 -i 8 -a 2 -x {0.0 4.0 1 ------- null}
h -t 1.21863733333333 -s 2 -d 3 -p tcp -e 1040 -c 2 -i 8 -a 2 -x {0.0 4.0 -1 ------- null}
r -t 1.22695733333333 -s 0 -d 2 -p tcp -e 1040 -c 2 -i 9 -a 2 -x {0.0 4.0 2 ------- null}
+ -t 1.22695733333333 -s 2 -d 3 -p tcp -e 1040 -c 2 -i 9 -a 2 -x {0.0 4.0 2 ------- null}
r -t 1.24466666666667 -s 2 -d 3 -p cbr -e 1000 -c 1 -i 7 -a 1 -x {1.0 6.0 5 ------- null}
h -t 1.24466666666667 -s 3 -d 7 -p cbr -e 1000 -c 1 -i 7 -a 1 -x {1.0 6.0 5 ------- null}
- -t 1.24637066666667 -s 2 -d 3 -p tcp -e 1040 -c 2 -i 9 -a 2 -x {0.0 4.0 2 ------- null}
h -t 1.24637066666667 -s 2 -d 3 -p tcp -e 1040 -c 2 -i 9 -a 2 -x {0.0 4.0 -1 ------- null}
+ -t 1.26 -s 1 -d 2 -p cbr -e 1000 -c 1 -i 10 -a 1 -x {1.0 6.0 6 ------- null}
- -t 1.26 -s 1 -d 2 -p cbr -e 1000 -c 1 -i 10 -a 1 -x {1.0 6.0 6 ------- null}
h -t 1.26 -s 1 -d 2 -p cbr -e 1000 -c 1 -i 10 -a 1 -x {1.0 6.0 -1 ------- null}
r -t 1.278 -s 1 -d 2 -p cbr -e 1000 -c 1 -i 10 -a 1 -x {1.0 6.0 6 ------- null}
+ -t 1.278 -s 2 -d 3 -p cbr -e 1000 -c 1 -i 10 -a 1 -x {1.0 6.0 6 ------- null}
- -t 1.278 -s 2 -d 3 -p cbr -e 1000 -c 1 -i 10 -a 1 -x {1.0 6.0 6 ------- null}
h -t 1.278 -s 2 -d 3 -p cbr -e 1000 -c 1 -i 10 -a 1 -x {1.0 6.0 -1 ------- null}
+ -t 1.28466666666667 -s 3 -d 7 -p cbr -e 1000 -c 1 -i 7 -a 1 -x {1.0 6.0 5 ------- null}
- -t 1.28466666666667 -s 3 -d 7 -p cbr -e 1000 -c 1 -i 7 -a 1 -x {1.0 6.0 5 ------- null}
h -t 1.28466666666667 -s 3 -d 7 -p cbr -e 1000 -c 1 -i 7 -a 1 -x {1.0 6.0 -1 ------- null}
d -t 1.28467066666667 -s 5 -d 7 -p cbr -e 1000 -c 1 -i 7 -a 1 -x {1.0 6.0 5 ------- null}
d -t 1.28467066666667 -s 4 -d 7 -p cbr -e 1000 -c 1 -i 7 -a 1 -x {1.0 6.0 5 ------- null}
r -t 1.32467066666667 -s 7 -d 6 -p cbr -e 1000 -c 1 -i 7 -a 1 -x {1.0 6.0 5 ------- null}
r -t 1.34637066666667 -s 2 -d 3 -p tcp -e 1040 -c 2 -i 8 -a 2 -x {0.0 4.0 1 ------- null}
h -t 1.34637066666667 -s 3 -d 7 -p tcp -e 1040 -c 2 -i 8 -a 2 -x {0.0 4.0 1 ------- null}
r -t 1.374104 -s 2 -d 3 -p tcp -e 1040 -c 2 -i 9 -a 2 -x {0.0 4.0 2 ------- null}
h -t 1.374104 -s 3 -d 7 -p tcp -e 1040 -c 2 -i 9 -a 2 -x {0.0 4.0 2 ------- null}
+ -t 1.38637066666667 -s 3 -d 7 -p tcp -e 1040 -c 2 -i 8 -a 2 -x {0.0 4.0 1 ------- null}
- -t 1.38637066666667 -s 3 -d 7 -p tcp -e 1040 -c 2 -i 8 -a 2 -x {0.0 4.0 1 ------- null}
h -t 1.38637066666667 -s 3 -d 7 -p tcp -e 1040 -c 2 -i 8 -a 2 -x {0.0 4.0 -1 ------- null}
d -t 1.38637466666667 -s 6 -d 7 -p tcp -e 1040 -c 2 -i 8 -a 2 -x {0.0 4.0 1 ------- null}
d -t 1.38637466666667 -s 5 -d 7 -p tcp -e 1040 -c 2 -i 8 -a 2 -x {0.0 4.0 1 ------- null}
r -t 1.40466666666667 -s 2 -d 3 -p cbr -e 1000 -c 1 -i 10 -a 1 -x {1.0 6.0 6 ------- null}
h -t 1.40466666666667 -s 3 -d 7 -p cbr -e 1000 -c 1 -i 10 -a 1 -x {1.0 6.0 6 ------- null}
+ -t 1.414104 -s 3 -d 7 -p tcp -e 1040 -c 2 -i 9 -a 2 -x {0.0 4.0 2 ------- null}
- -t 1.414104 -s 3 -d 7 -p tcp -e 1040 -c 2 -i 9 -a 2 -x {0.0 4.0 2 ------- null}
h -t 1.414104 -s 3 -d 7 -p tcp -e 1040 -c 2 -i 9 -a 2 -x {0.0 4.0 -1 ------- null}
d -t 1.414108 -s 6 -d 7 -p tcp -e 1040 -c 2 -i 9 -a 2 -x {0.0 4.0 2 ------- null}
d -t 1.414108 -s 5 -d 7 -p tcp -e 1040 -c 2 -i 9 -a 2 -x {0.0 4.0 2 ------- null}
+ -t 1.42 -s 1 -d 2 -p cbr -e 1000 -c 1 -i 11 -a 1 -x {1.0 6.0 7 ------- null}
- -t 1.42 -s 1 -d 2 -p cbr -e 1000 -c 1 -i 11 -a 1 -x {1.0 6.0 7 ------- null}
h -t 1.42 -s 1 -d 2 -p cbr -e 1000 -c 1 -i 11 -a 1 -x {1.0 6.0 -1 ------- null}
r -t 1.42637466666667 -s 7 -d 4 -p tcp -e 1040 -c 2 -i 8 -a 2 -x {0.0 4.0 1 ------- null}
h -t 1.42637466666667 -s 4 -d 7 -p ack -e 40 -c 2 -i 12 -a 2 -x {4.0 0.0 1 ------- null}
r -t 1.438 -s 1 -d 2 -p cbr -e 1000 -c 1 -i 11 -a 1 -x {1.0 6.0 7 ------- null}
+ -t 1.438 -s 2 -d 3 -p cbr -e 1000 -c 1 -i 11 -a 1 -x {1.0 6.0 7 ------- null}
- -t 1.438 -s 2 -d 3 -p cbr -e 1000 -c 1 -i 11 -a 1 -x {1.0 6.0 7 ------- null}
h -t 1.438 -s 2 -d 3 -p cbr -e 1000 -c 1 -i 11 -a 1 -x {1.0 6.0 -1 ------- null}
+ -t 1.44466666666667 -s 3 -d 7 -p cbr -e 1000 -c 1 -i 10 -a 1 -x {1.0 6.0 6 ------- null}
- -t 1.44466666666667 -s 3 -d 7 -p cbr -e 1000 -c 1 -i 10 -a 1 -x {1.0 6.0 6 ------- null}
h -t 1.44466666666667 -s 3 -d 7 -p cbr -e 1000 -c 1 -i 10 -a 1 -x {1.0 6.0 -1 ------- null}
d -t 1.44467066666667 -s 5 -d 7 -p cbr -e 1000 -c 1 -i 10 -a 1 -x {1.0 6.0 6 ------- null}
d -t 1.44467066666667 -s 4 -d 7 -p cbr -e 1000 -c 1 -i 10 -a 1 -x {1.0 6.0 6 ------- null}
r -t 1.454108 -s 7 -d 4 -p tcp -e 1040 -c 2 -i 9 -a 2 -x {0.0 4.0 2 ------- null}
h -t 1.454108 -s 4 -d 7 -p ack -e 40 -c 2 -i 13 -a 2 -x {4.0 0.0 2 ------- null}
+ -t 1.46637466666667 -s 4 -d 7 -p ack -e 40 -c 2 -i 12 -a 2 -x {4.0 0.0 1 ------- null}
- -t 1.46637466666667 -s 4 -d 7 -p ack -e 40 -c 2 -i 12 -a 2 -x {4.0 0.0 1 ------- null}
h -t 1.46637466666667 -s 4 -d 7 -p ack -e 40 -c 2 -i 12 -a 2 -x {4.0 0.0 -1 ------- null}
d -t 1.46637866666667 -s 6 -d 7 -p ack -e 40 -c 2 -i 12 -a 2 -x {4.0 0.0 1 ------- null}
d -t 1.46637866666667 -s 5 -d 7 -p ack -e 40 -c 2 -i 12 -a 2 -x {4.0 0.0 1 ------- null}
r -t 1.48467066666667 -s 7 -d 6 -p cbr -e 1000 -c 1 -i 10 -a 1 -x {1.0 6.0 6 ------- null}
+ -t 1.494108 -s 4 -d 7 -p ack -e 40 -c 2 -i 13 -a 2 -x {4.0 0.0 2 ------- null}
- -t 1.494108 -s 4 -d 7 -p ack -e 40 -c 2 -i 13 -a 2 -x {4.0 0.0 2 ------- null}
h -t 1.494108 -s 4 -d 7 -p ack -e 40 -c 2 -i 13 -a 2 -x {4.0 0.0 -1 ------- null}
d -t 1.494112 -s 6 -d 7 -p ack -e 40 -c 2 -i 13 -a 2 -x {4.0 0.0 2 ------- null}
d -t 1.494112 -s 5 -d 7 -p ack -e 40 -c 2 -i 13 -a 2 -x {4.0 0.0 2 ------- null}
r -t 1.50637866666667 -s 7 -d 3 -p ack -e 40 -c 2 -i 12 -a 2 -x {4.0 0.0 1 ------- null}
+ -t 1.50637866666667 -s 3 -d 2 -p ack -e 40 -c 2 -i 12 -a 2 -x {4.0 0.0 1 ------- null}
- -t 1.50637866666667 -s 3 -d 2 -p ack -e 40 -c 2 -i 12 -a 2 -x {4.0 0.0 1 ------- null}
h -t 1.50637866666667 -s 3 -d 2 -p ack -e 40 -c 2 -i 12 -a 2 -x {4.0 0.0 -1 ------- null}
r -t 1.534112 -s 7 -d 3 -p ack -e 40 -c 2 -i 13 -a 2 -x {4.0 0.0 2 ------- null}
+ -t 1.534112 -s 3 -d 2 -p ack -e 40 -c 2 -i 13 -a 2 -x {4.0 0.0 2 ------- null}
- -t 1.534112 -s 3 -d 2 -p ack -e 40 -c 2 -i 13 -a 2 -x {4.0 0.0 2 ------- null}
h -t 1.534112 -s 3 -d 2 -p ack -e 40 -c 2 -i 13 -a 2 -x {4.0 0.0 -1 ------- null}
r -t 1.56466666666667 -s 2 -d 3 -p cbr -e 1000 -c 1 -i 11 -a 1 -x {1.0 6.0 7 ------- null}
h -t 1.56466666666667 -s 3 -d 7 -p cbr -e 1000 -c 1 -i 11 -a 1 -x {1.0 6.0 7 ------- null}
+ -t 1.58 -s 1 -d 2 -p cbr -e 1000 -c 1 -i 14 -a 1 -x {1.0 6.0 8 ------- null}
- -t 1.58 -s 1 -d 2 -p cbr -e 1000 -c 1 -i 14 -a 1 -x {1.0 6.0 8 ------- null}
h -t 1.58 -s 1 -d 2 -p cbr -e 1000 -c 1 -i 14 -a 1 -x {1.0 6.0 -1 ------- null}
r -t 1.598 -s 1 -d 2 -p cbr -e 1000 -c 1 -i 14 -a 1 -x {1.0 6.0 8 ------- null}
+ -t 1.598 -s 2 -d 3 -p cbr -e 1000 -c 1 -i 14 -a 1 -x {1.0 6.0 8 ------- null}
- -t 1.598 -s 2 -d 3 -p cbr -e 1000 -c 1 -i 14 -a 1 -x {1.0 6.0 8 ------- null}
h -t 1.598 -s 2 -d 3 -p cbr -e 1000 -c 1 -i 14 -a 1 -x {1.0 6.0 -1 ------- null}
+ -t 1.60466666666667 -s 3 -d 7 -p cbr -e 1000 -c 1 -i 11 -a 1 -x {1.0 6.0 7 ------- null}
- -t 1.60466666666667 -s 3 -d 7 -p cbr -e 1000 -c 1 -i 11 -a 1 -x {1.0 6.0 7 ------- null}
h -t 1.60466666666667 -s 3 -d 7 -p cbr -e 1000 -c 1 -i 11 -a 1 -x {1.0 6.0 -1 ------- null}
d -t 1.60467066666667 -s 5 -d 7 -p cbr -e 1000 -c 1 -i 11 -a 1 -x {1.0 6.0 7 ------- null}
d -t 1.60467066666667 -s 4 -d 7 -p cbr -e 1000 -c 1 -i 11 -a 1 -x {1.0 6.0 7 ------- null}
r -t 1.60744533333333 -s 3 -d 2 -p ack -e 40 -c 2 -i 12 -a 2 -x {4.0 0.0 1 ------- null}
+ -t 1.60744533333333 -s 2 -d 0 -p ack -e 40 -c 2 -i 12 -a 2 -x {4.0 0.0 1 ------- null}
- -t 1.60744533333333 -s 2 -d 0 -p ack -e 40 -c 2 -i 12 -a 2 -x {4.0 0.0 1 ------- null}
h -t 1.60744533333333 -s 2 -d 0 -p ack -e 40 -c 2 -i 12 -a 2 -x {4.0 0.0 -1 ------- null}
r -t 1.61776533333333 -s 2 -d 0 -p ack -e 40 -c 2 -i 12 -a 2 -x {4.0 0.0 1 ------- null}
+ -t 1.61776533333333 -s 0 -d 2 -p tcp -e 1040 -c 2 -i 15 -a 2 -x {0.0 4.0 3 ------- null}
- -t 1.61776533333333 -s 0 -d 2 -p tcp -e 1040 -c 2 -i 15 -a 2 -x {0.0 4.0 3 ------- null}
h -t 1.61776533333333 -s 0 -d 2 -p tcp -e 1040 -c 2 -i 15 -a 2 -x {0.0 4.0 -1 ------- null}
+ -t 1.61776533333333 -s 0 -d 2 -p tcp -e 1040 -c 2 -i 16 -a 2 -x {0.0 4.0 4 ------- null}
- -t 1.62608533333333 -s 0 -d 2 -p tcp -e 1040 -c 2 -i 16 -a 2 -x {0.0 4.0 4 ------- null}
h -t 1.62608533333333 -s 0 -d 2 -p tcp -e 1040 -c 2 -i 16 -a 2 -x {0.0 4.0 -1 ------- null}
r -t 1.63517866666667 -s 3 -d 2 -p ack -e 40 -c 2 -i 13 -a 2 -x {4.0 0.0 2 ------- null}
+ -t 1.63517866666667 -s 2 -d 0 -p ack -e 40 -c 2 -i 13 -a 2 -x {4.0 0.0 2 ------- null}
- -t 1.63517866666667 -s 2 -d 0 -p ack -e 40 -c 2 -i 13 -a 2 -x {4.0 0.0 2 ------- null}
h -t 1.63517866666667 -s 2 -d 0 -p ack -e 40 -c 2 -i 13 -a 2 -x {4.0 0.0 -1 ------- null}
r -t 1.63608533333333 -s 0 -d 2 -p tcp -e 1040 -c 2 -i 15 -a 2 -x {0.0 4.0 3 ------- null}
+ -t 1.63608533333333 -s 2 -d 3 -p tcp -e 1040 -c 2 -i 15 -a 2 -x {0.0 4.0 3 ------- null}
- -t 1.63608533333333 -s 2 -d 3 -p tcp -e 1040 -c 2 -i 15 -a 2 -x {0.0 4.0 3 ------- null}
h -t 1.63608533333333 -s 2 -d 3 -p tcp -e 1040 -c 2 -i 15 -a 2 -x {0.0 4.0 -1 ------- null}
r -t 1.64440533333333 -s 0 -d 2 -p tcp -e 1040 -c 2 -i 16 -a 2 -x {0.0 4.0 4 ------- null}
+ -t 1.64440533333333 -s 2 -d 3 -p tcp -e 1040 -c 2 -i 16 -a 2 -x {0.0 4.0 4 ------- null}
r -t 1.64467066666667 -s 7 -d 6 -p cbr -e 1000 -c 1 -i 11 -a 1 -x {1.0 6.0 7 ------- null}
r -t 1.64549866666667 -s 2 -d 0 -p ack -e 40 -c 2 -i 13 -a 2 -x {4.0 0.0 2 ------- null}
+ -t 1.64549866666667 -s 0 -d 2 -p tcp -e 1040 -c 2 -i 17 -a 2 -x {0.0 4.0 5 ------- null}
- -t 1.64549866666667 -s 0 -d 2 -p tcp -e 1040 -c 2 -i 17 -a 2 -x {0.0 4.0 5 ------- null}
h -t 1.64549866666667 -s 0 -d 2 -p tcp -e 1040 -c 2 -i 17 -a 2 -x {0.0 4.0 -1 ------- null}
+ -t 1.64549866666667 -s 0 -d 2 -p tcp -e 1040 -c 2 -i 18 -a 2 -x {0.0 4.0 6 ------- null}
- -t 1.65381866666667 -s 0 -d 2 -p tcp -e 1040 -c 2 -i 18 -a 2 -x {0.0 4.0 6 ------- null}
h -t 1.65381866666667 -s 0 -d 2 -p tcp -e 1040 -c 2 -i 18 -a 2 -x {0.0 4.0 -1 ------- null}
- -t 1.66381866666667 -s 2 -d 3 -p tcp -e 1040 -c 2 -i 16 -a 2 -x {0.0 4.0 4 ------- null}
h -t 1.66381866666667 -s 2 -d 3 -p tcp -e 1040 -c 2 -i 16 -a 2 -x {0.0 4.0 -1 ------- null}
r -t 1.66381866666667 -s 0 -d 2 -p tcp -e 1040 -c 2 -i 17 -a 2 -x {0.0 4.0 5 ------- null}
+ -t 1.66381866666667 -s 2 -d 3 -p tcp -e 1040 -c 2 -i 17 -a 2 -x {0.0 4.0 5 ------- null}
r -t 1.67213866666667 -s 0 -d 2 -p tcp -e 1040 -c 2 -i 18 -a 2 -x {0.0 4.0 6 ------- null}
+ -t 1.67213866666667 -s 2 -d 3 -p tcp -e 1040 -c 2 -i 18 -a 2 -x {0.0 4.0 6 ------- null}
- -t 1.691552 -s 2 -d 3 -p tcp -e 1040 -c 2 -i 17 -a 2 -x {0.0 4.0 5 ------- null}
h -t 1.691552 -s 2 -d 3 -p tcp -e 1040 -c 2 -i 17 -a 2 -x {0.0 4.0 -1 ------- null}
- -t 1.71928533333333 -s 2 -d 3 -p tcp -e 1040 -c 2 -i 18 -a 2 -x {0.0 4.0 6 ------- null}
h -t 1.71928533333333 -s 2 -d 3 -p tcp -e 1040 -c 2 -i 18 -a 2 -x {0.0 4.0 -1 ------- null}
r -t 1.72466666666667 -s 2 -d 3 -p cbr -e 1000 -c 1 -i 14 -a 1 -x {1.0 6.0 8 ------- null}
h -t 1.72466666666667 -s 3 -d 7 -p cbr -e 1000 -c 1 -i 14 -a 1 -x {1.0 6.0 8 ------- null}
+ -t 1.74 -s 1 -d 2 -p cbr -e 1000 -c 1 -i 19 -a 1 -x {1.0 6.0 9 ------- null}
- -t 1.74 -s 1 -d 2 -p cbr -e 1000 -c 1 -i 19 -a 1 -x {1.0 6.0 9 ------- null}
h -t 1.74 -s 1 -d 2 -p cbr -e 1000 -c 1 -i 19 -a 1 -x {1.0 6.0 -1 ------- null}
r -t 1.758 -s 1 -d 2 -p cbr -e 1000 -c 1 -i 19 -a 1 -x {1.0 6.0 9 ------- null}
+ -t 1.758 -s 2 -d 3 -p cbr -e 1000 -c 1 -i 19 -a 1 -x {1.0 6.0 9 ------- null}
- -t 1.758 -s 2 -d 3 -p cbr -e 1000 -c 1 -i 19 -a 1 -x {1.0 6.0 9 ------- null}
h -t 1.758 -s 2 -d 3 -p cbr -e 1000 -c 1 -i 19 -a 1 -x {1.0 6.0 -1 ------- null}
r -t 1.76381866666667 -s 2 -d 3 -p tcp -e 1040 -c 2 -i 15 -a 2 -x {0.0 4.0 3 ------- null}
h -t 1.76381866666667 -s 3 -d 7 -p tcp -e 1040 -c 2 -i 15 -a 2 -x {0.0 4.0 3 ------- null}
+ -t 1.76466666666667 -s 3 -d 7 -p cbr -e 1000 -c 1 -i 14 -a 1 -x {1.0 6.0 8 ------- null}
- -t 1.76466666666667 -s 3 -d 7 -p cbr -e 1000 -c 1 -i 14 -a 1 -x {1.0 6.0 8 ------- null}
h -t 1.76466666666667 -s 3 -d 7 -p cbr -e 1000 -c 1 -i 14 -a 1 -x {1.0 6.0 -1 ------- null}
d -t 1.76467066666667 -s 5 -d 7 -p cbr -e 1000 -c 1 -i 14 -a 1 -x {1.0 6.0 8 ------- null}
d -t 1.76467066666667 -s 4 -d 7 -p cbr -e 1000 -c 1 -i 14 -a 1 -x {1.0 6.0 8 ------- null}
r -t 1.791552 -s 2 -d 3 -p tcp -e 1040 -c 2 -i 16 -a 2 -x {0.0 4.0 4 ------- null}
h -t 1.791552 -s 3 -d 7 -p tcp -e 1040 -c 2 -i 16 -a 2 -x {0.0 4.0 4 ------- null}
+ -t 1.80381866666667 -s 3 -d 7 -p tcp -e 1040 -c 2 -i 15 -a 2 -x {0.0 4.0 3 ------- null}
- -t 1.80381866666667 -s 3 -d 7 -p tcp -e 1040 -c 2 -i 15 -a 2 -x {0.0 4.0 3 ------- null}
h -t 1.80381866666667 -s 3 -d 7 -p tcp -e 1040 -c 2 -i 15 -a 2 -x {0.0 4.0 -1 ------- null}
d -t 1.80382266666667 -s 6 -d 7 -p tcp -e 1040 -c 2 -i 15 -a 2 -x {0.0 4.0 3 ------- null}
d -t 1.80382266666667 -s 5 -d 7 -p tcp -e 1040 -c 2 -i 15 -a 2 -x {0.0 4.0 3 ------- null}
r -t 1.80467066666667 -s 7 -d 6 -p cbr -e 1000 -c 1 -i 14 -a 1 -x {1.0 6.0 8 ------- null}
r -t 1.81928533333333 -s 2 -d 3 -p tcp -e 1040 -c 2 -i 17 -a 2 -x {0.0 4.0 5 ------- null}
h -t 1.81928533333333 -s 3 -d 7 -p tcp -e 1040 -c 2 -i 17 -a 2 -x {0.0 4.0 5 ------- null}
+ -t 1.831552 -s 3 -d 7 -p tcp -e 1040 -c 2 -i 16 -a 2 -x {0.0 4.0 4 ------- null}
- -t 1.831552 -s 3 -d 7 -p tcp -e 1040 -c 2 -i 16 -a 2 -x {0.0 4.0 4 ------- null}
h -t 1.831552 -s 3 -d 7 -p tcp -e 1040 -c 2 -i 16 -a 2 -x {0.0 4.0 -1 ------- null}
d -t 1.831556 -s 6 -d 7 -p tcp -e 1040 -c 2 -i 16 -a 2 -x {0.0 4.0 4 ------- null}
d -t 1.831556 -s 5 -d 7 -p tcp -e 1040 -c 2 -i 16 -a 2 -x {0.0 4.0 4 ------- null}
r -t 1.84382266666667 -s 7 -d 4 -p tcp -e 1040 -c 2 -i 15 -a 2 -x {0.0 4.0 3 ------- null}
h -t 1.84382266666667 -s 4 -d 7 -p ack -e 40 -c 2 -i 20 -a 2 -x {4.0 0.0 3 ------- null}
r -t 1.84701866666667 -s 2 -d 3 -p tcp -e 1040 -c 2 -i 18 -a 2 -x {0.0 4.0 6 ------- null}
h -t 1.84701866666667 -s 3 -d 7 -p tcp -e 1040 -c 2 -i 18 -a 2 -x {0.0 4.0 6 ------- null}
+ -t 1.85928533333333 -s 3 -d 7 -p tcp -e 1040 -c 2 -i 17 -a 2 -x {0.0 4.0 5 ------- null}
- -t 1.85928533333333 -s 3 -d 7 -p tcp -e 1040 -c 2 -i 17 -a 2 -x {0.0 4.0 5 ------- null}
h -t 1.85928533333333 -s 3 -d 7 -p tcp -e 1040 -c 2 -i 17 -a 2 -x {0.0 4.0 -1 ------- null}
d -t 1.85928933333333 -s 6 -d 7 -p tcp -e 1040 -c 2 -i 17 -a 2 -x {0.0 4.0 5 ------- null}
d -t 1.85928933333333 -s 5 -d 7 -p tcp -e 1040 -c 2 -i 17 -a 2 -x {0.0 4.0 5 ------- null}
r -t 1.871556 -s 7 -d 4 -p tcp -e 1040 -c 2 -i 16 -a 2 -x {0.0 4.0 4 ------- null}
h -t 1.871556 -s 4 -d 7 -p ack -e 40 -c 2 -i 21 -a 2 -x {4.0 0.0 4 ------- null}
+ -t 1.88382266666667 -s 4 -d 7 -p ack -e 40 -c 2 -i 20 -a 2 -x {4.0 0.0 3 ------- null}
- -t 1.88382266666667 -s 4 -d 7 -p ack -e 40 -c 2 -i 20 -a 2 -x {4.0 0.0 3 ------- null}
h -t 1.88382266666667 -s 4 -d 7 -p ack -e 40 -c 2 -i 20 -a 2 -x {4.0 0.0 -1 ------- null}
d -t 1.88382666666667 -s 6 -d 7 -p ack -e 40 -c 2 -i 20 -a 2 -x {4.0 0.0 3 ------- null}
d -t 1.88382666666667 -s 5 -d 7 -p ack -e 40 -c 2 -i 20 -a 2 -x {4.0 0.0 3 ------- null}
r -t 1.88466666666667 -s 2 -d 3 -p cbr -e 1000 -c 1 -i 19 -a 1 -x {1.0 6.0 9 ------- null}
h -t 1.88466666666667 -s 3 -d 7 -p cbr -e 1000 -c 1 -i 19 -a 1 -x {1.0 6.0 9 ------- null}
+ -t 1.88701866666667 -s 3 -d 7 -p tcp -e 1040 -c 2 -i 18 -a 2 -x {0.0 4.0 6 ------- null}
- -t 1.88701866666667 -s 3 -d 7 -p tcp -e 1040 -c 2 -i 18 -a 2 -x {0.0 4.0 6 ------- null}
h -t 1.88701866666667 -s 3 -d 7 -p tcp -e 1040 -c 2 -i 18 -a 2 -x {0.0 4.0 -1 ------- null}
d -t 1.88702266666667 -s 6 -d 7 -p tcp -e 1040 -c 2 -i 18 -a 2 -x {0.0 4.0 6 ------- null}
d -t 1.88702266666667 -s 5 -d 7 -p tcp -e 1040 -c 2 -i 18 -a 2 -x {0.0 4.0 6 ------- null}
r -t 1.89928933333333 -s 7 -d 4 -p tcp -e 1040 -c 2 -i 17 -a 2 -x {0.0 4.0 5 ------- null}
h -t 1.89928933333333 -s 4 -d 7 -p ack -e 40 -c 2 -i 22 -a 2 -x {4.0 0.0 5 ------- null}
+ -t 1.9 -s 1 -d 2 -p cbr -e 1000 -c 1 -i 23 -a 1 -x {1.0 6.0 10 ------- null}
- -t 1.9 -s 1 -d 2 -p cbr -e 1000 -c 1 -i 23 -a 1 -x {1.0 6.0 10 ------- null}
h -t 1.9 -s 1 -d 2 -p cbr -e 1000 -c 1 -i 23 -a 1 -x {1.0 6.0 -1 ------- null}
+ -t 1.911556 -s 4 -d 7 -p ack -e 40 -c 2 -i 21 -a 2 -x {4.0 0.0 4 ------- null}
- -t 1.911556 -s 4 -d 7 -p ack -e 40 -c 2 -i 21 -a 2 -x {4.0 0.0 4 ------- null}
h -t 1.911556 -s 4 -d 7 -p ack -e 40 -c 2 -i 21 -a 2 -x {4.0 0.0 -1 ------- null}
d -t 1.91156 -s 6 -d 7 -p ack -e 40 -c 2 -i 21 -a 2 -x {4.0 0.0 4 ------- null}
d -t 1.91156 -s 5 -d 7 -p ack -e 40 -c 2 -i 21 -a 2 -x {4.0 0.0 4 ------- null}
r -t 1.918 -s 1 -d 2 -p cbr -e 1000 -c 1 -i 23 -a 1 -x {1.0 6.0 10 ------- null}
+ -t 1.918 -s 2 -d 3 -p cbr -e 1000 -c 1 -i 23 -a 1 -x {1.0 6.0 10 ------- null}
- -t 1.918 -s 2 -d 3 -p cbr -e 1000 -c 1 -i 23 -a 1 -x {1.0 6.0 10 ------- null}
h -t 1.918 -s 2 -d 3 -p cbr -e 1000 -c 1 -i 23 -a 1 -x {1.0 6.0 -1 ------- null}
r -t 1.92382666666667 -s 7 -d 3 -p ack -e 40 -c 2 -i 20 -a 2 -x {4.0 0.0 3 ------- null}
+ -t 1.92382666666667 -s 3 -d 2 -p ack -e 40 -c 2 -i 20 -a 2 -x {4.0 0.0 3 ------- null}
- -t 1.92382666666667 -s 3 -d 2 -p ack -e 40 -c 2 -i 20 -a 2 -x {4.0 0.0 3 ------- null}
h -t 1.92382666666667 -s 3 -d 2 -p ack -e 40 -c 2 -i 20 -a 2 -x {4.0 0.0 -1 ------- null}
+ -t 1.92466666666667 -s 3 -d 7 -p cbr -e 1000 -c 1 -i 19 -a 1 -x {1.0 6.0 9 ------- null}
- -t 1.92466666666667 -s 3 -d 7 -p cbr -e 1000 -c 1 -i 19 -a 1 -x {1.0 6.0 9 ------- null}
h -t 1.92466666666667 -s 3 -d 7 -p cbr -e 1000 -c 1 -i 19 -a 1 -x {1.0 6.0 -1 ------- null}
d -t 1.92467066666667 -s 5 -d 7 -p cbr -e 1000 -c 1 -i 19 -a 1 -x {1.0 6.0 9 ------- null}
d -t 1.92467066666667 -s 4 -d 7 -p cbr -e 1000 -c 1 -i 19 -a 1 -x {1.0 6.0 9 ------- null}
r -t 1.92702266666667 -s 7 -d 4 -p tcp -e 1040 -c 2 -i 18 -a 2 -x {0.0 4.0 6 ------- null}
h -t 1.92702266666667 -s 4 -d 7 -p ack -e 40 -c 2 -i 24 -a 2 -x {4.0 0.0 6 ------- null}
+ -t 1.93928933333333 -s 4 -d 7 -p ack -e 40 -c 2 -i 22 -a 2 -x {4.0 0.0 5 ------- null}
- -t 1.93928933333333 -s 4 -d 7 -p ack -e 40 -c 2 -i 22 -a 2 -x {4.0 0.0 5 ------- null}
h -t 1.93928933333333 -s 4 -d 7 -p ack -e 40 -c 2 -i 22 -a 2 -x {4.0 0.0 -1 ------- null}
d -t 1.93929333333333 -s 6 -d 7 -p ack -e 40 -c 2 -i 22 -a 2 -x {4.0 0.0 5 ------- null}
d -t 1.93929333333333 -s 5 -d 7 -p ack -e 40 -c 2 -i 22 -a 2 -x {4.0 0.0 5 ------- null}
r -t 1.95156 -s 7 -d 3 -p ack -e 40 -c 2 -i 21 -a 2 -x {4.0 0.0 4 ------- null}
+ -t 1.95156 -s 3 -d 2 -p ack -e 40 -c 2 -i 21 -a 2 -x {4.0 0.0 4 ------- null}
- -t 1.95156 -s 3 -d 2 -p ack -e 40 -c 2 -i 21 -a 2 -x {4.0 0.0 4 ------- null}
h -t 1.95156 -s 3 -d 2 -p ack -e 40 -c 2 -i 21 -a 2 -x {4.0 0.0 -1 ------- null}
r -t 1.96467066666667 -s 7 -d 6 -p cbr -e 1000 -c 1 -i 19 -a 1 -x {1.0 6.0 9 ------- null}
+ -t 1.96702266666667 -s 4 -d 7 -p ack -e 40 -c 2 -i 24 -a 2 -x {4.0 0.0 6 ------- null}