+ 0.3 1 2 cbr 1000 ------- 1 1.0 6.0 0 0
- 0.3 1 2 cbr 1000 ------- 1 1.0 6.0 0 0
r 0.318 1 2 cbr 1000 ------- 1 1.0 6.0 0 0
+ 0.318 2 3 cbr 1000 ------- 1 1.0 6.0 0 0
- 0.318 2 3 cbr 1000 ------- 1 1.0 6.0 0 0
r 0.444667 2 3 cbr 1000 ------- 1 1.0 6.0 0 0
h 0.444667 3 7 cbr 1000 ------- 1 1.0 6.0 0 0
+ 0.46 1 2 cbr 1000 ------- 1 1.0 6.0 1 1
- 0.46 1 2 cbr 1000 ------- 1 1.0 6.0 1 1
r 0.478 1 2 cbr 1000 ------- 1 1.0 6.0 1 1
+ 0.478 2 3 cbr 1000 ------- 1 1.0 6.0 1 1
- 0.478 2 3 cbr 1000 ------- 1 1.0 6.0 1 1
+ 0.484667 3 7 cbr 1000 ------- 1 1.0 6.0 0 0
- 0.484667 3 7 cbr 1000 ------- 1 1.0 6.0 0 0
d 0.484671 5 7 cbr 1000 ------- 1 1.0 6.0 0 0
d 0.484671 4 7 cbr 1000 ------- 1 1.0 6.0 0 0
r 0.524671 7 6 cbr 1000 ------- 1 1.0 6.0 0 0
r 0.604667 2 3 cbr 1000 ------- 1 1.0 6.0 1 1
h 0.604667 3 7 cbr 1000 ------- 1 1.0 6.0 1 1
+ 0.62 1 2 cbr 1000 ------- 1 1.0 6.0 2 2
- 0.62 1 2 cbr 1000 ------- 1 1.0 6.0 2 2
r 0.638 1 2 cbr 1000 ------- 1 1.0 6.0 2 2
+ 0.638 2 3 cbr 1000 ------- 1 1.0 6.0 2 2
- 0.638 2 3 cbr 1000 ------- 1 1.0 6.0 2 2
+ 0.644667 3 7 cbr 1000 ------- 1 1.0 6.0 1 1
- 0.644667 3 7 cbr 1000 ------- 1 1.0 6.0 1 1
d 0.644671 5 7 cbr 1000 ------- 1 1.0 6.0 1 1
d 0.644671 4 7 cbr 1000 ------- 1 1.0 6.0 1 1
r 0.684671 7 6 cbr 1000 ------- 1 1.0 6.0 1 1
r 0.764667 2 3 cbr 1000 ------- 1 1.0 6.0 2 2
h 0.764667 3 7 cbr 1000 ------- 1 1.0 6.0 2 2
+ 0.78 1 2 cbr 1000 ------- 1 1.0 6.0 3 3
- 0.78 1 2 cbr 1000 ------- 1 1.0 6.0 3 3
r 0.798 1 2 cbr 1000 ------- 1 1.0 6.0 3 3
+ 0.798 2 3 cbr 1000 ------- 1 1.0 6.0 3 3
- 0.798 2 3 cbr 1000 ------- 1 1.0 6.0 3 3
+ 0.8 0 2 tcp 40 ------- 2 0.0 4.0 0 4
- 0.8 0 2 tcp 40 ------- 2 0.0 4.0 0 4
+ 0.804667 3 7 cbr 1000 ------- 1 1.0 6.0 2 2
- 0.804667 3 7 cbr 1000 ------- 1 1.0 6.0 2 2
d 0.804671 5 7 cbr 1000 ------- 1 1.0 6.0 2 2
d 0.804671 4 7 cbr 1000 ------- 1 1.0 6.0 2 2
r 0.81032 0 2 tcp 40 ------- 2 0.0 4.0 0 4
+ 0.81032 2 3 tcp 40 ------- 2 0.0 4.0 0 4
- 0.824667 2 3 tcp 40 ------- 2 0.0 4.0 0 4
r 0.844671 7 6 cbr 1000 ------- 1 1.0 6.0 2 2
r 0.924667 2 3 cbr 1000 ------- 1 1.0 6.0 3 3
h 0.924667 3 7 cbr 1000 ------- 1 1.0 6.0 3 3
r 0.925733 2 3 tcp 40 ------- 2 0.0 4.0 0 4
h 0.925733 3 7 tcp 40 ------- 2 0.0 4.0 0 4
+ 0.94 1 2 cbr 1000 ------- 1 1.0 6.0 4 5
- 0.94 1 2 cbr 1000 ------- 1 1.0 6.0 4 5
r 0.958 1 2 cbr 1000 ------- 1 1.0 6.0 4 5
+ 0.958 2 3 cbr 1000 ------- 1 1.0 6.0 4 5
- 0.958 2 3 cbr 1000 ------- 1 1.0 6.0 4 5
+ 0.964667 3 7 cbr 1000 ------- 1 1.0 6.0 3 3
- 0.964667 3 7 cbr 1000 ------- 1 1.0 6.0 3 3
d 0.964671 5 7 cbr 1000 ------- 1 1.0 6.0 3 3
d 0.964671 4 7 cbr 1000 ------- 1 1.0 6.0 3 3
+ 0.965733 3 7 tcp 40 ------- 2 0.0 4.0 0 4
- 0.968923 3 7 tcp 40 ------- 2 0.0 4.0 0 4
d 0.968927 6 7 tcp 40 ------- 2 0.0 4.0 0 4
d 0.968927 5 7 tcp 40 ------- 2 0.0 4.0 0 4
r 1.004671 7 6 cbr 1000 ------- 1 1.0 6.0 3 3
r 1.008927 7 4 tcp 40 ------- 2 0.0 4.0 0 4
h 1.008927 4 7 ack 40 ------- 2 4.0 0.0 0 6
+ 1.048927 4 7 ack 40 ------- 2 4.0 0.0 0 6
- 1.048927 4 7 ack 40 ------- 2 4.0 0.0 0 6
d 1.048931 6 7 ack 40 ------- 2 4.0 0.0 0 6
d 1.048931 5 7 ack 40 ------- 2 4.0 0.0 0 6
r 1.084667 2 3 cbr 1000 ------- 1 1.0 6.0 4 5
h 1.084667 3 7 cbr 1000 ------- 1 1.0 6.0 4 5
r 1.088931 7 3 ack 40 ------- 2 4.0 0.0 0 6
+ 1.088931 3 2 ack 40 ------- 2 4.0 0.0 0 6
- 1.088931 3 2 ack 40 ------- 2 4.0 0.0 0 6
+ 1.1 1 2 cbr 1000 ------- 1 1.0 6.0 5 7
- 1.1 1 2 cbr 1000 ------- 1 1.0 6.0 5 7
r 1.118 1 2 cbr 1000 ------- 1 1.0 6.0 5 7
+ 1.118 2 3 cbr 1000 ------- 1 1.0 6.0 5 7
- 1.118 2 3 cbr 1000 ------- 1 1.0 6.0 5 7
+ 1.124667 3 7 cbr 1000 ------- 1 1.0 6.0 4 5
- 1.124667 3 7 cbr 1000 ------- 1 1.0 6.0 4 5
d 1.124671 5 7 cbr 1000 ------- 1 1.0 6.0 4 5
d 1.124671 4 7 cbr 1000 ------- 1 1.0 6.0 4 5
r 1.164671 7 6 cbr 1000 ------- 1 1.0 6.0 4 5
r 1.189997 3 2 ack 40 ------- 2 4.0 0.0 0 6
+ 1.189997 2 0 ack 40 ------- 2 4.0 0.0 0 6
- 1.189997 2 0 ack 40 ------- 2 4.0 0.0 0 6
r 1.200317 2 0 ack 40 ------- 2 4.0 0.0 0 6
+ 1.200317 0 2 tcp 1040 ------- 2 0.0 4.0 1 8
- 1.200317 0 2 tcp 1040 ------- 2 0.0 4.0 1 8
+ 1.200317 0 2 tcp 1040 ------- 2 0.0 4.0 2 9
- 1.208637 0 2 tcp 1040 ------- 2 0.0 4.0 2 9
r 1.218637 0 2 tcp 1040 ------- 2 0.0 4.0 1 8
+ 1.218637 2 3 tcp 1040 ------- 2 0.0 4.0 1 8
- 1.218637 2 3 tcp 1040 ------- 2 0.0 4.0 1 8
r 1.226957 0 2 tcp 1040 ------- 2 0.0 4.0 2 9
+ 1.226957 2 3 tcp 1040 ------- 2 0.0 4.0 2 9
r 1.244667 2 3 cbr 1000 ------- 1 1.0 6.0 5 7
h 1.244667 3 7 cbr 1000 ------- 1 1.0 6.0 5 7
- 1.246371 2 3 tcp 1040 ------- 2 0.0 4.0 2 9
+ 1.26 1 2 cbr 1000 ------- 1 1.0 6.0 6 10
- 1.26 1 2 cbr 1000 ------- 1 1.0 6.0 6 10
r 1.278 1 2 cbr 1000 ------- 1 1.0 6.0 6 10
+ 1.278 2 3 cbr 1000 ------- 1 1.0 6.0 6 10
- 1.278 2 3 cbr 1000 ------- 1 1.0 6.0 6 10
+ 1.284667 3 7 cbr 1000 ------- 1 1.0 6.0 5 7
- 1.284667 3 7 cbr 1000 ------- 1 1.0 6.0 5 7
d 1.284671 5 7 cbr 1000 ------- 1 1.0 6.0 5 7
d 1.284671 4 7 cbr 1000 ------- 1 1.0 6.0 5 7
r 1.324671 7 6 cbr 1000 ------- 1 1.0 6.0 5 7
r 1.346371 2 3 tcp 1040 ------- 2 0.0 4.0 1 8
h 1.346371 3 7 tcp 1040 ------- 2 0.0 4.0 1 8
r 1.374104 2 3 tcp 1040 ------- 2 0.0 4.0 2 9
h 1.374104 3 7 tcp 1040 ------- 2 0.0 4.0 2 9
+ 1.386371 3 7 tcp 1040 ------- 2 0.0 4.0 1 8
- 1.386371 3 7 tcp 1040 ------- 2 0.0 4.0 1 8
d 1.386375 6 7 tcp 1040 ------- 2 0.0 4.0 1 8
d 1.386375 5 7 tcp 1040 ------- 2 0.0 4.0 1 8
r 1.404667 2 3 cbr 1000 ------- 1 1.0 6.0 6 10
h 1.404667 3 7 cbr 1000 ------- 1 1.0 6.0 6 10
+ 1.414104 3 7 tcp 1040 ------- 2 0.0 4.0 2 9
- 1.414104 3 7 tcp 1040 ------- 2 0.0 4.0 2 9
d 1.414108 6 7 tcp 1040 ------- 2 0.0 4.0 2 9
d 1.414108 5 7 tcp 1040 ------- 2 0.0 4.0 2 9
+ 1.42 1 2 cbr 1000 ------- 1 1.0 6.0 7 11
- 1.42 1 2 cbr 1000 ------- 1 1.0 6.0 7 11
r 1.426375 7 4 tcp 1040 ------- 2 0.0 4.0 1 8
h 1.426375 4 7 ack 40 ------- 2 4.0 0.0 1 12
r 1.438 1 2 cbr 1000 ------- 1 1.0 6.0 7 11
+ 1.438 2 3 cbr 1000 ------- 1 1.0 6.0 7 11
- 1.438 2 3 cbr 1000 ------- 1 1.0 6.0 7 11
+ 1.444667 3 7 cbr 1000 ------- 1 1.0 6.0 6 10
- 1.444667 3 7 cbr 1000 ------- 1 1.0 6.0 6 10
d 1.444671 5 7 cbr 1000 ------- 1 1.0 6.0 6 10
d 1.444671 4 7 cbr 1000 ------- 1 1.0 6.0 6 10
r 1.454108 7 4 tcp 1040 ------- 2 0.0 4.0 2 9
h 1.454108 4 7 ack 40 ------- 2 4.0 0.0 2 13
+ 1.466375 4 7 ack 40 ------- 2 4.0 0.0 1 12
- 1.466375 4 7 ack 40 ------- 2 4.0 0.0 1 12
d 1.466379 6 7 ack 40 ------- 2 4.0 0.0 1 12
d 1.466379 5 7 ack 40 ------- 2 4.0 0.0 1 12
r 1.484671 7 6 cbr 1000 ------- 1 1.0 6.0 6 10
+ 1.494108 4 7 ack 40 ------- 2 4.0 0.0 2 13
- 1.494108 4 7 ack 40 ------- 2 4.0 0.0 2 13
d 1.494112 6 7 ack 40 ------- 2 4.0 0.0 2 13
d 1.494112 5 7 ack 40 ------- 2 4.0 0.0 2 13
r 1.506379 7 3 ack 40 ------- 2 4.0 0.0 1 12
+ 1.506379 3 2 ack 40 ------- 2 4.0 0.0 1 12
- 1.506379 3 2 ack 40 ------- 2 4.0 0.0 1 12
r 1.534112 7 3 ack 40 ------- 2 4.0 0.0 2 13
+ 1.534112 3 2 ack 40 ------- 2 4.0 0.0 2 13
- 1.534112 3 2 ack 40 ------- 2 4.0 0.0 2 13
r 1.564667 2 3 cbr 1000 ------- 1 1.0 6.0 7 11
h 1.564667 3 7 cbr 1000 ------- 1 1.0 6.0 7 11
+ 1.58 1 2 cbr 1000 ------- 1 1.0 6.0 8 14
- 1.58 1 2 cbr 1000 ------- 1 1.0 6.0 8 14
r 1.598 1 2 cbr 1000 ------- 1 1.0 6.0 8 14
+ 1.598 2 3 cbr 1000 ------- 1 1.0 6.0 8 14
- 1.598 2 3 cbr 1000 ------- 1 1.0 6.0 8 14
+ 1.604667 3 7 cbr 1000 ------- 1 1.0 6.0 7 11
- 1.604667 3 7 cbr 1000 ------- 1 1.0 6.0 7 11
d 1.604671 5 7 cbr 1000 ------- 1 1.0 6.0 7 11
d 1.604671 4 7 cbr 1000 ------- 1 1.0 6.0 7 11
r 1.607445 3 2 ack 40 ------- 2 4.0 0.0 1 12
+ 1.607445 2 0 ack 40 ------- 2 4.0 0.0 1 12
- 1.607445 2 0 ack 40 ------- 2 4.0 0.0 1 12
r 1.617765 2 0 ack 40 ------- 2 4.0 0.0 1 12
+ 1.617765 0 2 tcp 1040 ------- 2 0.0 4.0 3 15
- 1.617765 0 2 tcp 1040 ------- 2 0.0 4.0 3 15
+ 1.617765 0 2 tcp 1040 ------- 2 0.0 4.0 4 16
- 1.626085 0 2 tcp 1040 ------- 2 0.0 4.0 4 16
r 1.635179 3 2 ack 40 ------- 2 4.0 0.0 2 13
+ 1.635179 2 0 ack 40 ------- 2 4.0 0.0 2 13
- 1.635179 2 0 ack 40 ------- 2 4.0 0.0 2 13
r 1.636085 0 2 tcp 1040 ------- 2 0.0 4.0 3 15
+ 1.636085 2 3 tcp 1040 ------- 2 0.0 4.0 3 15
- 1.636085 2 3 tcp 1040 ------- 2 0.0 4.0 3 15
r 1.644405 0 2 tcp 1040 ------- 2 0.0 4.0 4 16
+ 1.644405 2 3 tcp 1040 ------- 2 0.0 4.0 4 16
r 1.644671 7 6 cbr 1000 ------- 1 1.0 6.0 7 11
r 1.645499 2 0 ack 40 ------- 2 4.0 0.0 2 13
+ 1.645499 0 2 tcp 1040 ------- 2 0.0 4.0 5 17
- 1.645499 0 2 tcp 1040 ------- 2 0.0 4.0 5 17
+ 1.645499 0 2 tcp 1040 ------- 2 0.0 4.0 6 18
- 1.653819 0 2 tcp 1040 ------- 2 0.0 4.0 6 18
- 1.663819 2 3 tcp 1040 ------- 2 0.0 4.0 4 16
r 1.663819 0 2 tcp 1040 ------- 2 0.0 4.0 5 17
+ 1.663819 2 3 tcp 1040 ------- 2 0.0 4.0 5 17
r 1.672139 0 2 tcp 1040 ------- 2 0.0 4.0 6 18
+ 1.672139 2 3 tcp 1040 ------- 2 0.0 4.0 6 18
- 1.691552 2 3 tcp 1040 ------- 2 0.0 4.0 5 17
- 1.719285 2 3 tcp 1040 ------- 2 0.0 4.0 6 18
r 1.724667 2 3 cbr 1000 ------- 1 1.0 6.0 8 14
h 1.724667 3 7 cbr 1000 ------- 1 1.0 6.0 8 14
+ 1.74 1 2 cbr 1000 ------- 1 1.0 6.0 9 19
- 1.74 1 2 cbr 1000 ------- 1 1.0 6.0 9 19
r 1.758 1 2 cbr 1000 ------- 1 1.0 6.0 9 19
+ 1.758 2 3 cbr 1000 ------- 1 1.0 6.0 9 19
- 1.758 2 3 cbr 1000 ------- 1 1.0 6.0 9 19
r 1.763819 2 3 tcp 1040 ------- 2 0.0 4.0 3 15
h 1.763819 3 7 tcp 1040 ------- 2 0.0 4.0 3 15
+ 1.764667 3 7 cbr 1000 ------- 1 1.0 6.0 8 14
- 1.764667 3 7 cbr 1000 ------- 1 1.0 6.0 8 14
d 1.764671 5 7 cbr 1000 ------- 1 1.0 6.0 8 14
d 1.764671 4 7 cbr 1000 ------- 1 1.0 6.0 8 14
r 1.791552 2 3 tcp 1040 ------- 2 0.0 4.0 4 16
h 1.791552 3 7 tcp 1040 ------- 2 0.0 4.0 4 16
+ 1.803819 3 7 tcp 1040 ------- 2 0.0 4.0 3 15
- 1.803819 3 7 tcp 1040 ------- 2 0.0 4.0 3 15
d 1.803823 6 7 tcp 1040 ------- 2 0.0 4.0 3 15
d 1.803823 5 7 tcp 1040 ------- 2 0.0 4.0 3 15
r 1.804671 7 6 cbr 1000 ------- 1 1.0 6.0 8 14
r 1.819285 2 3 tcp 1040 ------- 2 0.0 4.0 5 17
h 1.819285 3 7 tcp 1040 ------- 2 0.0 4.0 5 17
+ 1.831552 3 7 tcp 1040 ------- 2 0.0 4.0 4 16
- 1.831552 3 7 tcp 1040 ------- 2 0.0 4.0 4 16
d 1.831556 6 7 tcp 1040 ------- 2 0.0 4.0 4 16
d 1.831556 5 7 tcp 1040 ------- 2 0.0 4.0 4 16
r 1.843823 7 4 tcp 1040 ------- 2 0.0 4.0 3 15
h 1.843823 4 7 ack 40 ------- 2 4.0 0.0 3 20
r 1.847019 2 3 tcp 1040 ------- 2 0.0 4.0 6 18
h 1.847019 3 7 tcp 1040 ------- 2 0.0 4.0 6 18
+ 1.859285 3 7 tcp 1040 ------- 2 0.0 4.0 5 17
- 1.859285 3 7 tcp 1040 ------- 2 0.0 4.0 5 17
d 1.859289 6 7 tcp 1040 ------- 2 0.0 4.0 5 17
d 1.859289 5 7 tcp 1040 ------- 2 0.0 4.0 5 17
r 1.871556 7 4 tcp 1040 ------- 2 0.0 4.0 4 16
h 1.871556 4 7 ack 40 ------- 2 4.0 0.0 4 21
+ 1.883823 4 7 ack 40 ------- 2 4.0 0.0 3 20
- 1.883823 4 7 ack 40 ------- 2 4.0 0.0 3 20
d 1.883827 6 7 ack 40 ------- 2 4.0 0.0 3 20
d 1.883827 5 7 ack 40 ------- 2 4.0 0.0 3 20
r 1.884667 2 3 cbr 1000 ------- 1 1.0 6.0 9 19
h 1.884667 3 7 cbr 1000 ------- 1 1.0 6.0 9 19
+ 1.887019 3 7 tcp 1040 ------- 2 0.0 4.0 6 18
- 1.887019 3 7 tcp 1040 ------- 2 0.0 4.0 6 18
d 1.887023 6 7 tcp 1040 ------- 2 0.0 4.0 6 18
d 1.887023 5 7 tcp 1040 ------- 2 0.0 4.0 6 18
r 1.899289 7 4 tcp 1040 ------- 2 0.0 4.0 5 17
h 1.899289 4 7 ack 40 ------- 2 4.0 0.0 5 22
+ 1.9 1 2 cbr 1000 ------- 1 1.0 6.0 10 23
- 1.9 1 2 cbr 1000 ------- 1 1.0 6.0 10 23
+ 1.911556 4 7 ack 40 ------- 2 4.0 0.0 4 21
- 1.911556 4 7 ack 40 ------- 2 4.0 0.0 4 21
d 1.91156 6 7 ack 40 ------- 2 4.0 0.0 4 21
d 1.91156 5 7 ack 40 ------- 2 4.0 0.0 4 21
r 1.918 1 2 cbr 1000 ------- 1 1.0 6.0 10 23
+ 1.918 2 3 cbr 1000 ------- 1 1.0 6.0 10 23
- 1.918 2 3 cbr 1000 ------- 1 1.0 6.0 10 23
r 1.923827 7 3 ack 40 ------- 2 4.0 0.0 3 20
+ 1.923827 3 2 ack 40 ------- 2 4.0 0.0 3 20
- 1.923827 3 2 ack 40 ------- 2 4.0 0.0 3 20
+ 1.924667 3 7 cbr 1000 ------- 1 1.0 6.0 9 19
- 1.924667 3 7 cbr 1000 ------- 1 1.0 6.0 9 19
d 1.924671 5 7 cbr 1000 ------- 1 1.0 6.0 9 19
d 1.924671 4 7 cbr 1000 ------- 1 1.0 6.0 9 19
r 1.927023 7 4 tcp 1040 ------- 2 0.0 4.0 6 18
h 1.927023 4 7 ack 40 ------- 2 4.0 0.0 6 24
+ 1.939289 4 7 ack 40 ------- 2 4.0 0.0 5 22
- 1.939289 4 7 ack 40 ------- 2 4.0 0.0 5 22
d 1.939293 6 7 ack 40 ------- 2 4.0 0.0 5 22
d 1.939293 5 7 ack 40 ------- 2 4.0 0.0 5 22
r 1.95156 7 3 ack 40 ------- 2 4.0 0.0 4 21
+ 1.95156 3 2 ack 40 ------- 2 4.0 0.0 4 21
- 1.95156 3 2 ack 40 ------- 2 4.0 0.0 4 21
r 1.964671 7 6 cbr 1000 ------- 1 1.0 6.0 9 19
+ 1.967023 4 7 ack 40 ------- 2 4.0 0.0 6 24
- 1.967023 4 7 ack 40 ------- 2 4.0 0.0 6 24
d 1.967027 6 7 ack 40 ------- 2 4.0 0.0 6 24
d 1.967027 5 7 ack 40 ------- 2 4.0 0.0 6 24
r 1.979293 7 3 ack 40 ------- 2 4.0 0.0 5 22
+ 1.979293 3 2 ack 40 ------- 2 4.0 0.0 5 22
- 1.979293 3 2 ack 40 ------- 2 4.0 0.0 5 22
r 2.007027 7 3 ack 40 ------- 2 4.0 0.0 6 24
+ 2.007027 3 2 ack 40 ------- 2 4.0 0.0 6 24
- 2.007027 3 2 ack 40 ------- 2 4.0 0.0 6 24
r 2.024893 3 2 ack 40 ------- 2 4.0 0.0 3 20
+ 2.024893 2 0 ack 40 ------- 2 4.0 0.0 3 20
- 2.024893 2 0 ack 40 ------- 2 4.0 0.0 3 20
r 2.035213 2 0 ack 40 ------- 2 4.0 0.0 3 20
+ 2.035213 0 2 tcp 1040 ------- 2 0.0 4.0 7 25
- 2.035213 0 2 tcp 1040 ------- 2 0.0 4.0 7 25
+ 2.035213 0 2 tcp 1040 ------- 2 0.0 4.0 8 26
- 2.043533 0 2 tcp 1040 ------- 2 0.0 4.0 8 26
r 2.044667 2 3 cbr 1000 ------- 1 1.0 6.0 10 23
h 2.044667 3 7 cbr 1000 ------- 1 1.0 6.0 10 23
r 2.052627 3 2 ack 40 ------- 2 4.0 0.0 4 21
+ 2.052627 2 0 ack 40 ------- 2 4.0 0.0 4 21
- 2.052627 2 0 ack 40 ------- 2 4.0 0.0 4 21
r 2.053533 0 2 tcp 1040 ------- 2 0.0 4.0 7 25
+ 2.053533 2 3 tcp 1040 ------- 2 0.0 4.0 7 25
- 2.053533 2 3 tcp 1040 ------- 2 0.0 4.0 7 25
+ 2.06 1 2 cbr 1000 ------- 1 1.0 6.0 11 27
- 2.06 1 2 cbr 1000 ------- 1 1.0 6.0 11 27
r 2.061853 0 2 tcp 1040 ------- 2 0.0 4.0 8 26
+ 2.061853 2 3 tcp 1040 ------- 2 0.0 4.0 8 26
r 2.062947 2 0 ack 40 ------- 2 4.0 0.0 4 21
+ 2.062947 0 2 tcp 1040 ------- 2 0.0 4.0 9 28
- 2.062947 0 2 tcp 1040 ------- 2 0.0 4.0 9 28
+ 2.062947 0 2 tcp 1040 ------- 2 0.0 4.0 10 29
- 2.071267 0 2 tcp 1040 ------- 2 0.0 4.0 10 29
r 2.078 1 2 cbr 1000 ------- 1 1.0 6.0 11 27
+ 2.078 2 3 cbr 1000 ------- 1 1.0 6.0 11 27
r 2.08036 3 2 ack 40 ------- 2 4.0 0.0 5 22
+ 2.08036 2 0 ack 40 ------- 2 4.0 0.0 5 22
- 2.08036 2 0 ack 40 ------- 2 4.0 0.0 5 22
- 2.081267 2 3 tcp 1040 ------- 2 0.0 4.0 8 26
r 2.081267 0 2 tcp 1040 ------- 2 0.0 4.0 9 28
+ 2.081267 2 3 tcp 1040 ------- 2 0.0 4.0 9 28
+ 2.084667 3 7 cbr 1000 ------- 1 1.0 6.0 10 23
- 2.084667 3 7 cbr 1000 ------- 1 1.0 6.0 10 23
d 2.084671 5 7 cbr 1000 ------- 1 1.0 6.0 10 23
d 2.084671 4 7 cbr 1000 ------- 1 1.0 6.0 10 23
r 2.089587 0 2 tcp 1040 ------- 2 0.0 4.0 10 29
+ 2.089587 2 3 tcp 1040 ------- 2 0.0 4.0 10 29
r 2.09068 2 0 ack 40 ------- 2 4.0 0.0 5 22
+ 2.09068 0 2 tcp 1040 ------- 2 0.0 4.0 11 30
- 2.09068 0 2 tcp 1040 ------- 2 0.0 4.0 11 30
+ 2.09068 0 2 tcp 1040 ------- 2 0.0 4.0 12 31
- 2.099 0 2 tcp 1040 ------- 2 0.0 4.0 12 31
r 2.108093 3 2 ack 40 ------- 2 4.0 0.0 6 24
+ 2.108093 2 0 ack 40 ------- 2 4.0 0.0 6 24
- 2.108093 2 0 ack 40 ------- 2 4.0 0.0 6 24
- 2.109 2 3 cbr 1000 ------- 1 1.0 6.0 11 27
r 2.109 0 2 tcp 1040 ------- 2 0.0 4.0 11 30
+ 2.109 2 3 tcp 1040 ------- 2 0.0 4.0 11 30
r 2.11732 0 2 tcp 1040 ------- 2 0.0 4.0 12 31
+ 2.11732 2 3 tcp 1040 ------- 2 0.0 4.0 12 31
r 2.118413 2 0 ack 40 ------- 2 4.0 0.0 6 24
+ 2.118413 0 2 tcp 1040 ------- 2 0.0 4.0 13 32
- 2.118413 0 2 tcp 1040 ------- 2 0.0 4.0 13 32
+ 2.118413 0 2 tcp 1040 ------- 2 0.0 4.0 14 33
r 2.124671 7 6 cbr 1000 ------- 1 1.0 6.0 10 23
- 2.126733 0 2 tcp 1040 ------- 2 0.0 4.0 14 33
- 2.135667 2 3 tcp 1040 ------- 2 0.0 4.0 9 28
r 2.136733 0 2 tcp 1040 ------- 2 0.0 4.0 13 32
+ 2.136733 2 3 tcp 1040 ------- 2 0.0 4.0 13 32
r 2.145053 0 2 tcp 1040 ------- 2 0.0 4.0 14 33
+ 2.145053 2 3 tcp 1040 ------- 2 0.0 4.0 14 33
- 2.1634 2 3 tcp 1040 ------- 2 0.0 4.0 10 29
r 2.181267 2 3 tcp 1040 ------- 2 0.0 4.0 7 25
h 2.181267 3 7 tcp 1040 ------- 2 0.0 4.0 7 25
- 2.191133 2 3 tcp 1040 ------- 2 0.0 4.0 11 30
r 2.209 2 3 tcp 1040 ------- 2 0.0 4.0 8 26
h 2.209 3 7 tcp 1040 ------- 2 0.0 4.0 8 26
- 2.218867 2 3 tcp 1040 ------- 2 0.0 4.0 12 31
+ 2.22 1 2 cbr 1000 ------- 1 1.0 6.0 12 34
- 2.22 1 2 cbr 1000 ------- 1 1.0 6.0 12 34
+ 2.221267 3 7 tcp 1040 ------- 2 0.0 4.0 7 25
- 2.221267 3 7 tcp 1040 ------- 2 0.0 4.0 7 25
d 2.221271 6 7 tcp 1040 ------- 2 0.0 4.0 7 25
d 2.221271 5 7 tcp 1040 ------- 2 0.0 4.0 7 25
r 2.235667 2 3 cbr 1000 ------- 1 1.0 6.0 11 27
h 2.235667 3 7 cbr 1000 ------- 1 1.0 6.0 11 27
r 2.238 1 2 cbr 1000 ------- 1 1.0 6.0 12 34
+ 2.238 2 3 cbr 1000 ------- 1 1.0 6.0 12 34
- 2.2466 2 3 tcp 1040 ------- 2 0.0 4.0 13 32
+ 2.249 3 7 tcp 1040 ------- 2 0.0 4.0 8 26
- 2.249 3 7 tcp 1040 ------- 2 0.0 4.0 8 26
d 2.249004 6 7 tcp 1040 ------- 2 0.0 4.0 8 26
d 2.249004 5 7 tcp 1040 ------- 2 0.0 4.0 8 26
r 2.261271 7 4 tcp 1040 ------- 2 0.0 4.0 7 25
h 2.261271 4 7 ack 40 ------- 2 4.0 0.0 7 35
r 2.2634 2 3 tcp 1040 ------- 2 0.0 4.0 9 28
h 2.2634 3 7 tcp 1040 ------- 2 0.0 4.0 9 28
- 2.274333 2 3 tcp 1040 ------- 2 0.0 4.0 14 33
+ 2.275667 3 7 cbr 1000 ------- 1 1.0 6.0 11 27
- 2.275667 3 7 cbr 1000 ------- 1 1.0 6.0 11 27
d 2.275671 5 7 cbr 1000 ------- 1 1.0 6.0 11 27
d 2.275671 4 7 cbr 1000 ------- 1 1.0 6.0 11 27
r 2.289004 7 4 tcp 1040 ------- 2 0.0 4.0 8 26
h 2.289004 4 7 ack 40 ------- 2 4.0 0.0 8 36
r 2.291133 2 3 tcp 1040 ------- 2 0.0 4.0 10 29
h 2.291133 3 7 tcp 1040 ------- 2 0.0 4.0 10 29
+ 2.301271 4 7 ack 40 ------- 2 4.0 0.0 7 35
- 2.301271 4 7 ack 40 ------- 2 4.0 0.0 7 35
d 2.301275 6 7 ack 40 ------- 2 4.0 0.0 7 35
d 2.301275 5 7 ack 40 ------- 2 4.0 0.0 7 35
- 2.302067 2 3 cbr 1000 ------- 1 1.0 6.0 12 34
+ 2.3034 3 7 tcp 1040 ------- 2 0.0 4.0 9 28
- 2.3034 3 7 tcp 1040 ------- 2 0.0 4.0 9 28
d 2.303404 6 7 tcp 1040 ------- 2 0.0 4.0 9 28
d 2.303404 5 7 tcp 1040 ------- 2 0.0 4.0 9 28
r 2.315671 7 6 cbr 1000 ------- 1 1.0 6.0 11 27
r 2.318867 2 3 tcp 1040 ------- 2 0.0 4.0 11 30
h 2.318867 3 7 tcp 1040 ------- 2 0.0 4.0 11 30
+ 2.329004 4 7 ack 40 ------- 2 4.0 0.0 8 36
- 2.329004 4 7 ack 40 ------- 2 4.0 0.0 8 36
d 2.329008 6 7 ack 40 ------- 2 4.0 0.0 8 36
d 2.329008 5 7 ack 40 ------- 2 4.0 0.0 8 36
+ 2.331133 3 7 tcp 1040 ------- 2 0.0 4.0 10 29
- 2.331133 3 7 tcp 1040 ------- 2 0.0 4.0 10 29
d 2.331137 6 7 tcp 1040 ------- 2 0.0 4.0 10 29
d 2.331137 5 7 tcp 1040 ------- 2 0.0 4.0 10 29
r 2.341275 7 3 ack 40 ------- 2 4.0 0.0 7 35
+ 2.341275 3 2 ack 40 ------- 2 4.0 0.0 7 35
- 2.341275 3 2 ack 40 ------- 2 4.0 0.0 7 35
r 2.343404 7 4 tcp 1040 ------- 2 0.0 4.0 9 28
h 2.343404 4 7 ack 40 ------- 2 4.0 0.0 9 37
r 2.3466 2 3 tcp 1040 ------- 2 0.0 4.0 12 31
h 2.3466 3 7 tcp 1040 ------- 2 0.0 4.0 12 31
+ 2.358867 3 7 tcp 1040 ------- 2 0.0 4.0 11 30
- 2.358867 3 7 tcp 1040 ------- 2 0.0 4.0 11 30
d 2.358871 6 7 tcp 1040 ------- 2 0.0 4.0 11 30
d 2.358871 5 7 tcp 1040 ------- 2 0.0 4.0 11 30
r 2.369008 7 3 ack 40 ------- 2 4.0 0.0 8 36
+ 2.369008 3 2 ack 40 ------- 2 4.0 0.0 8 36
- 2.369008 3 2 ack 40 ------- 2 4.0 0.0 8 36
r 2.371137 7 4 tcp 1040 ------- 2 0.0 4.0 10 29
h 2.371137 4 7 ack 40 ------- 2 4.0 0.0 10 38
r 2.374333 2 3 tcp 1040 ------- 2 0.0 4.0 13 32
h 2.374333 3 7 tcp 1040 ------- 2 0.0 4.0 13 32
+ 2.38 1 2 cbr 1000 ------- 1 1.0 6.0 13 39
- 2.38 1 2 cbr 1000 ------- 1 1.0 6.0 13 39
+ 2.383404 4 7 ack 40 ------- 2 4.0 0.0 9 37
- 2.383404 4 7 ack 40 ------- 2 4.0 0.0 9 37
d 2.383408 6 7 ack 40 ------- 2 4.0 0.0 9 37
d 2.383408 5 7 ack 40 ------- 2 4.0 0.0 9 37
+ 2.3866 3 7 tcp 1040 ------- 2 0.0 4.0 12 31
- 2.3866 3 7 tcp 1040 ------- 2 0.0 4.0 12 31
d 2.386604 6 7 tcp 1040 ------- 2 0.0 4.0 12 31
d 2.386604 5 7 tcp 1040 ------- 2 0.0 4.0 12 31
r 2.398 1 2 cbr 1000 ------- 1 1.0 6.0 13 39
+ 2.398 2 3 cbr 1000 ------- 1 1.0 6.0 13 39
- 2.398 2 3 cbr 1000 ------- 1 1.0 6.0 13 39
r 2.398871 7 4 tcp 1040 ------- 2 0.0 4.0 11 30
h 2.398871 4 7 ack 40 ------- 2 4.0 0.0 11 40
r 2.402067 2 3 tcp 1040 ------- 2 0.0 4.0 14 33
h 2.402067 3 7 tcp 1040 ------- 2 0.0 4.0 14 33
+ 2.411137 4 7 ack 40 ------- 2 4.0 0.0 10 38
- 2.411137 4 7 ack 40 ------- 2 4.0 0.0 10 38
d 2.411141 6 7 ack 40 ------- 2 4.0 0.0 10 38
d 2.411141 5 7 ack 40 ------- 2 4.0 0.0 10 38
+ 2.414333 3 7 tcp 1040 ------- 2 0.0 4.0 13 32
- 2.414333 3 7 tcp 1040 ------- 2 0.0 4.0 13 32
d 2.414337 6 7 tcp 1040 ------- 2 0.0 4.0 13 32
d 2.414337 5 7 tcp 1040 ------- 2 0.0 4.0 13 32
r 2.423408 7 3 ack 40 ------- 2 4.0 0.0 9 37
+ 2.423408 3 2 ack 40 ------- 2 4.0 0.0 9 37
- 2.423408 3 2 ack 40 ------- 2 4.0 0.0 9 37
r 2.426604 7 4 tcp 1040 ------- 2 0.0 4.0 12 31
h 2.426604 4 7 ack 40 ------- 2 4.0 0.0 12 41
r 2.428733 2 3 cbr 1000 ------- 1 1.0 6.0 12 34
h 2.428733 3 7 cbr 1000 ------- 1 1.0 6.0 12 34
+ 2.438871 4 7 ack 40 ------- 2 4.0 0.0 11 40
- 2.438871 4 7 ack 40 ------- 2 4.0 0.0 11 40
d 2.438875 6 7 ack 40 ------- 2 4.0 0.0 11 40
d 2.438875 5 7 ack 40 ------- 2 4.0 0.0 11 40
+ 2.442067 3 7 tcp 1040 ------- 2 0.0 4.0 14 33
- 2.442067 3 7 tcp 1040 ------- 2 0.0 4.0 14 33
d 2.442071 6 7 tcp 1040 ------- 2 0.0 4.0 14 33
d 2.442071 5 7 tcp 1040 ------- 2 0.0 4.0 14 33
r 2.442341 3 2 ack 40 ------- 2 4.0 0.0 7 35
+ 2.442341 2 0 ack 40 ------- 2 4.0 0.0 7 35
- 2.442341 2 0 ack 40 ------- 2 4.0 0.0 7 35
r 2.451141 7 3 ack 40 ------- 2 4.0 0.0 10 38
+ 2.451141 3 2 ack 40 ------- 2 4.0 0.0 10 38
- 2.451141 3 2 ack 40 ------- 2 4.0 0.0 10 38
r 2.452661 2 0 ack 40 ------- 2 4.0 0.0 7 35
+ 2.452661 0 2 tcp 1040 ------- 2 0.0 4.0 15 42
- 2.452661 0 2 tcp 1040 ------- 2 0.0 4.0 15 42
+ 2.452661 0 2 tcp 1040 ------- 2 0.0 4.0 16 43
r 2.454337 7 4 tcp 1040 ------- 2 0.0 4.0 13 32
h 2.454337 4 7 ack 40 ------- 2 4.0 0.0 13 44
- 2.460981 0 2 tcp 1040 ------- 2 0.0 4.0 16 43
+ 2.466604 4 7 ack 40 ------- 2 4.0 0.0 12 41
- 2.466604 4 7 ack 40 ------- 2 4.0 0.0 12 41
d 2.466608 6 7 ack 40 ------- 2 4.0 0.0 12 41
d 2.466608 5 7 ack 40 ------- 2 4.0 0.0 12 41
+ 2.468733 3 7 cbr 1000 ------- 1 1.0 6.0 12 34
- 2.468733 3 7 cbr 1000 ------- 1 1.0 6.0 12 34
d 2.468737 5 7 cbr 1000 ------- 1 1.0 6.0 12 34
d 2.468737 4 7 cbr 1000 ------- 1 1.0 6.0 12 34
r 2.470075 3 2 ack 40 ------- 2 4.0 0.0 8 36
+ 2.470075 2 0 ack 40 ------- 2 4.0 0.0 8 36
- 2.470075 2 0 ack 40 ------- 2 4.0 0.0 8 36
r 2.470981 0 2 tcp 1040 ------- 2 0.0 4.0 15 42
+ 2.470981 2 3 tcp 1040 ------- 2 0.0 4.0 15 42
- 2.470981 2 3 tcp 1040 ------- 2 0.0 4.0 15 42
r 2.478875 7 3 ack 40 ------- 2 4.0 0.0 11 40
+ 2.478875 3 2 ack 40 ------- 2 4.0 0.0 11 40
- 2.478875 3 2 ack 40 ------- 2 4.0 0.0 11 40
r 2.479301 0 2 tcp 1040 ------- 2 0.0 4.0 16 43
+ 2.479301 2 3 tcp 1040 ------- 2 0.0 4.0 16 43
r 2.480395 2 0 ack 40 ------- 2 4.0 0.0 8 36
+ 2.480395 0 2 tcp 1040 ------- 2 0.0 4.0 17 45
- 2.480395 0 2 tcp 1040 ------- 2 0.0 4.0 17 45
+ 2.480395 0 2 tcp 1040 ------- 2 0.0 4.0 18 46
r 2.482071 7 4 tcp 1040 ------- 2 0.0 4.0 14 33
h 2.482071 4 7 ack 40 ------- 2 4.0 0.0 14 47
- 2.488715 0 2 tcp 1040 ------- 2 0.0 4.0 18 46
+ 2.494337 4 7 ack 40 ------- 2 4.0 0.0 13 44
- 2.494337 4 7 ack 40 ------- 2 4.0 0.0 13 44
d 2.494341 6 7 ack 40 ------- 2 4.0 0.0 13 44
d 2.494341 5 7 ack 40 ------- 2 4.0 0.0 13 44
- 2.498715 2 3 tcp 1040 ------- 2 0.0 4.0 16 43
r 2.498715 0 2 tcp 1040 ------- 2 0.0 4.0 17 45
+ 2.498715 2 3 tcp 1040 ------- 2 0.0 4.0 17 45
r 2.506608 7 3 ack 40 ------- 2 4.0 0.0 12 41
+ 2.506608 3 2 ack 40 ------- 2 4.0 0.0 12 41
- 2.506608 3 2 ack 40 ------- 2 4.0 0.0 12 41
r 2.507035 0 2 tcp 1040 ------- 2 0.0 4.0 18 46
+ 2.507035 2 3 tcp 1040 ------- 2 0.0 4.0 18 46
r 2.508737 7 6 cbr 1000 ------- 1 1.0 6.0 12 34
+ 2.522071 4 7 ack 40 ------- 2 4.0 0.0 14 47
- 2.522071 4 7 ack 40 ------- 2 4.0 0.0 14 47
d 2.522075 6 7 ack 40 ------- 2 4.0 0.0 14 47
d 2.522075 5 7 ack 40 ------- 2 4.0 0.0 14 47
r 2.524475 3 2 ack 40 ------- 2 4.0 0.0 9 37
+ 2.524475 2 0 ack 40 ------- 2 4.0 0.0 9 37
- 2.524475 2 0 ack 40 ------- 2 4.0 0.0 9 37
r 2.524667 2 3 cbr 1000 ------- 1 1.0 6.0 13 39
h 2.524667 3 7 cbr 1000 ------- 1 1.0 6.0 13 39
- 2.526448 2 3 tcp 1040 ------- 2 0.0 4.0 17 45
r 2.534341 7 3 ack 40 ------- 2 4.0 0.0 13 44
+ 2.534341 3 2 ack 40 ------- 2 4.0 0.0 13 44
- 2.534341 3 2 ack 40 ------- 2 4.0 0.0 13 44
r 2.534795 2 0 ack 40 ------- 2 4.0 0.0 9 37
+ 2.534795 0 2 tcp 1040 ------- 2 0.0 4.0 19 48
- 2.534795 0 2 tcp 1040 ------- 2 0.0 4.0 19 48
+ 2.534795 0 2 tcp 1040 ------- 2 0.0 4.0 20 49
+ 2.54 1 2 cbr 1000 ------- 1 1.0 6.0 14 50
- 2.54 1 2 cbr 1000 ------- 1 1.0 6.0 14 50
- 2.543115 0 2 tcp 1040 ------- 2 0.0 4.0 20 49
r 2.552208 3 2 ack 40 ------- 2 4.0 0.0 10 38
+ 2.552208 2 0 ack 40 ------- 2 4.0 0.0 10 38
- 2.552208 2 0 ack 40 ------- 2 4.0 0.0 10 38
r 2.553115 0 2 tcp 1040 ------- 2 0.0 4.0 19 48
+ 2.553115 2 3 tcp 1040 ------- 2 0.0 4.0 19 48
- 2.554181 2 3 tcp 1040 ------- 2 0.0 4.0 18 46
r 2.558 1 2 cbr 1000 ------- 1 1.0 6.0 14 50
+ 2.558 2 3 cbr 1000 ------- 1 1.0 6.0 14 50
r 2.561435 0 2 tcp 1040 ------- 2 0.0 4.0 20 49
+ 2.561435 2 3 tcp 1040 ------- 2 0.0 4.0 20 49
r 2.562075 7 3 ack 40 ------- 2 4.0 0.0 14 47
+ 2.562075 3 2 ack 40 ------- 2 4.0 0.0 14 47
- 2.562075 3 2 ack 40 ------- 2 4.0 0.0 14 47
r 2.562528 2 0 ack 40 ------- 2 4.0 0.0 10 38
+ 2.562528 0 2 tcp 1040 ------- 2 0.0 4.0 21 51
- 2.562528 0 2 tcp 1040 ------- 2 0.0 4.0 21 51
+ 2.562528 0 2 tcp 1040 ------- 2 0.0 4.0 22 52
+ 2.564667 3 7 cbr 1000 ------- 1 1.0 6.0 13 39
- 2.564667 3 7 cbr 1000 ------- 1 1.0 6.0 13 39
d 2.564671 5 7 cbr 1000 ------- 1 1.0 6.0 13 39
d 2.564671 4 7 cbr 1000 ------- 1 1.0 6.0 13 39
- 2.570848 0 2 tcp 1040 ------- 2 0.0 4.0 22 52
r 2.579941 3 2 ack 40 ------- 2 4.0 0.0 11 40
+ 2.579941 2 0 ack 40 ------- 2 4.0 0.0 11 40
- 2.579941 2 0 ack 40 ------- 2 4.0 0.0 11 40
r 2.580848 0 2 tcp 1040 ------- 2 0.0 4.0 21 51
+ 2.580848 2 3 tcp 1040 ------- 2 0.0 4.0 21 51
- 2.581915 2 3 tcp 1040 ------- 2 0.0 4.0 19 48
r 2.589168 0 2 tcp 1040 ------- 2 0.0 4.0 22 52
+ 2.589168 2 3 tcp 1040 ------- 2 0.0 4.0 22 52
r 2.590261 2 0 ack 40 ------- 2 4.0 0.0 11 40
+ 2.590261 0 2 tcp 1040 ------- 2 0.0 4.0 23 53
- 2.590261 0 2 tcp 1040 ------- 2 0.0 4.0 23 53
+ 2.590261 0 2 tcp 1040 ------- 2 0.0 4.0 24 54
- 2.598581 0 2 tcp 1040 ------- 2 0.0 4.0 24 54
r 2.598715 2 3 tcp 1040 ------- 2 0.0 4.0 15 42
h 2.598715 3 7 tcp 1040 ------- 2 0.0 4.0 15 42
r 2.604671 7 6 cbr 1000 ------- 1 1.0 6.0 13 39
r 2.607675 3 2 ack 40 ------- 2 4.0 0.0 12 41
+ 2.607675 2 0 ack 40 ------- 2 4.0 0.0 12 41
- 2.607675 2 0 ack 40 ------- 2 4.0 0.0 12 41
r 2.608581 0 2 tcp 1040 ------- 2 0.0 4.0 23 53
+ 2.608581 2 3 tcp 1040 ------- 2 0.0 4.0 23 53
- 2.609648 2 3 cbr 1000 ------- 1 1.0 6.0 14 50
r 2.616901 0 2 tcp 1040 ------- 2 0.0 4.0 24 54
+ 2.616901 2 3 tcp 1040 ------- 2 0.0 4.0 24 54
r 2.617995 2 0 ack 40 ------- 2 4.0 0.0 12 41
+ 2.617995 0 2 tcp 1040 ------- 2 0.0 4.0 25 55
- 2.617995 0 2 tcp 1040 ------- 2 0.0 4.0 25 55
+ 2.617995 0 2 tcp 1040 ------- 2 0.0 4.0 26 56
- 2.626315 0 2 tcp 1040 ------- 2 0.0 4.0 26 56
r 2.626448 2 3 tcp 1040 ------- 2 0.0 4.0 16 43
h 2.626448 3 7 tcp 1040 ------- 2 0.0 4.0 16 43
r 2.635408 3 2 ack 40 ------- 2 4.0 0.0 13 44
+ 2.635408 2 0 ack 40 ------- 2 4.0 0.0 13 44
- 2.635408 2 0 ack 40 ------- 2 4.0 0.0 13 44
- 2.636315 2 3 tcp 1040 ------- 2 0.0 4.0 20 49
r 2.636315 0 2 tcp 1040 ------- 2 0.0 4.0 25 55
+ 2.636315 2 3 tcp 1040 ------- 2 0.0 4.0 25 55
+ 2.638715 3 7 tcp 1040 ------- 2 0.0 4.0 15 42
- 2.638715 3 7 tcp 1040 ------- 2 0.0 4.0 15 42
d 2.638719 6 7 tcp 1040 ------- 2 0.0 4.0 15 42
d 2.638719 5 7 tcp 1040 ------- 2 0.0 4.0 15 42
r 2.644635 0 2 tcp 1040 ------- 2 0.0 4.0 26 56
+ 2.644635 2 3 tcp 1040 ------- 2 0.0 4.0 26 56
r 2.645728 2 0 ack 40 ------- 2 4.0 0.0 13 44
+ 2.645728 0 2 tcp 1040 ------- 2 0.0 4.0 27 57
- 2.645728 0 2 tcp 1040 ------- 2 0.0 4.0 27 57
+ 2.645728 0 2 tcp 1040 ------- 2 0.0 4.0 28 58
- 2.654048 0 2 tcp 1040 ------- 2 0.0 4.0 28 58
r 2.654181 2 3 tcp 1040 ------- 2 0.0 4.0 17 45
h 2.654181 3 7 tcp 1040 ------- 2 0.0 4.0 17 45
r 2.663141 3 2 ack 40 ------- 2 4.0 0.0 14 47
+ 2.663141 2 0 ack 40 ------- 2 4.0 0.0 14 47
- 2.663141 2 0 ack 40 ------- 2 4.0 0.0 14 47
- 2.664048 2 3 tcp 1040 ------- 2 0.0 4.0 21 51
r 2.664048 0 2 tcp 1040 ------- 2 0.0 4.0 27 57
+ 2.664048 2 3 tcp 1040 ------- 2 0.0 4.0 27 57
+ 2.666448 3 7 tcp 1040 ------- 2 0.0 4.0 16 43
- 2.666448 3 7 tcp 1040 ------- 2 0.0 4.0 16 43
d 2.666452 6 7 tcp 1040 ------- 2 0.0 4.0 16 43
d 2.666452 5 7 tcp 1040 ------- 2 0.0 4.0 16 43
r 2.672368 0 2 tcp 1040 ------- 2 0.0 4.0 28 58
+ 2.672368 2 3 tcp 1040 ------- 2 0.0 4.0 28 58
r 2.673461 2 0 ack 40 ------- 2 4.0 0.0 14 47
+ 2.673461 0 2 tcp 1040 ------- 2 0.0 4.0 29 59
- 2.673461 0 2 tcp 1040 ------- 2 0.0 4.0 29 59
+ 2.673461 0 2 tcp 1040 ------- 2 0.0 4.0 30 60
r 2.678719 7 4 tcp 1040 ------- 2 0.0 4.0 15 42
h 2.678719 4 7 ack 40 ------- 2 4.0 0.0 15 61
- 2.681781 0 2 tcp 1040 ------- 2 0.0 4.0 30 60
r 2.681915 2 3 tcp 1040 ------- 2 0.0 4.0 18 46
h 2.681915 3 7 tcp 1040 ------- 2 0.0 4.0 18 46
- 2.691781 2 3 tcp 1040 ------- 2 0.0 4.0 22 52
r 2.691781 0 2 tcp 1040 ------- 2 0.0 4.0 29 59
+ 2.691781 2 3 tcp 1040 ------- 2 0.0 4.0 29 59
+ 2.694181 3 7 tcp 1040 ------- 2 0.0 4.0 17 45
- 2.694181 3 7 tcp 1040 ------- 2 0.0 4.0 17 45
d 2.694185 6 7 tcp 1040 ------- 2 0.0 4.0 17 45
d 2.694185 5 7 tcp 1040 ------- 2 0.0 4.0 17 45
+ 2.7 1 2 cbr 1000 ------- 1 1.0 6.0 15 62
- 2.7 1 2 cbr 1000 ------- 1 1.0 6.0 15 62
r 2.700101 0 2 tcp 1040 ------- 2 0.0 4.0 30 60
+ 2.700101 2 3 tcp 1040 ------- 2 0.0 4.0 30 60
r 2.706452 7 4 tcp 1040 ------- 2 0.0 4.0 16 43
h 2.706452 4 7 ack 40 ------- 2 4.0 0.0 16 63
r 2.709648 2 3 tcp 1040 ------- 2 0.0 4.0 19 48
h 2.709648 3 7 tcp 1040 ------- 2 0.0 4.0 19 48
r 2.718 1 2 cbr 1000 ------- 1 1.0 6.0 15 62
+ 2.718 2 3 cbr 1000 ------- 1 1.0 6.0 15 62
+ 2.718719 4 7 ack 40 ------- 2 4.0 0.0 15 61
- 2.718719 4 7 ack 40 ------- 2 4.0 0.0 15 61
d 2.718723 6 7 ack 40 ------- 2 4.0 0.0 15 61
d 2.718723 5 7 ack 40 ------- 2 4.0 0.0 15 61
- 2.719515 2 3 tcp 1040 ------- 2 0.0 4.0 23 53
+ 2.721915 3 7 tcp 1040 ------- 2 0.0 4.0 18 46
- 2.721915 3 7 tcp 1040 ------- 2 0.0 4.0 18 46
d 2.721919 6 7 tcp 1040 ------- 2 0.0 4.0 18 46
d 2.721919 5 7 tcp 1040 ------- 2 0.0 4.0 18 46
r 2.734185 7 4 tcp 1040 ------- 2 0.0 4.0 17 45
h 2.734185 4 7 ack 40 ------- 2 4.0 0.0 17 64
r 2.736315 2 3 cbr 1000 ------- 1 1.0 6.0 14 50
h 2.736315 3 7 cbr 1000 ------- 1 1.0 6.0 14 50
+ 2.746452 4 7 ack 40 ------- 2 4.0 0.0 16 63
- 2.746452 4 7 ack 40 ------- 2 4.0 0.0 16 63